Siesta Version  : 4.1.5
Architecture    : unknown
Compiler version: GNU Fortran (Ubuntu 9.3.0-17ubuntu1~20.04) 9.3.0
Compiler flags  : mpif90 -O2 -fPIC -ftree-vectorize
PP flags        : -DFC_HAVE_ABORT -DMPI -DCDF -DNCDF -DNCDF_4
Libraries       : libncdf.a libfdict.a -L/usr/lib -lscalapack-openmpi -L/opt/intel/oneapi/mkl/llatest/lib/intel64 -Wl,--no-as-needed -lmkl_gf_lp64 -lmkl_sequential -lmkl_core -lpthread -lm -ldl -lnetcdff -lnetcdf -lhdf5_hl -lhdf5 -lz
PARALLEL version
NetCDF support
NetCDF-4 support

* Running on 16 nodes in parallel
>> Start of run:  15-FEB-2022  18:13:16

                           ***********************       
                           *  WELCOME TO SIESTA  *       
                           ***********************       

reinit: Reading from standard input
reinit: Dumped input in INPUT_TMP.17326
************************** Dump of input data file ****************************
%include params.fdf
NumberOfSpecies	1
NumberOfAtoms	32
%block ChemicalSpecieslabel
    1 6 C
%endblock ChemicalSpecieslabel
%block PAO.BasisSizes
    C	DZP
%endblock PAO.BasisSizes
LatticeConstant	1.0 Ang
%block LatticeVectors
   40.000000000000000     0.000000000000000     0.000000000000000
    0.000000000000000    40.000000000000000     0.000000000000000
    0.000000000000000     0.000000000000000     4.230000000000000
%endblock LatticeVectors
AtomicCoordinatesFormat  Ang
%block AtomicCoordinatesAndAtomicSpecies
    -2.001146880      2.438101870     -1.412695760 1
    -0.915527970      3.018412790     -0.702383100 1
    -2.781823880      1.486600810     -0.702417270 1
    -2.781818220      1.486566800      0.702396520 1
    -2.001088710      2.438120860      1.412626810 1
    -0.915384690      3.018438460      0.702322030 1
    -2.438101870     -2.001146870     -1.412695750 1
    -3.018412790     -0.915527970     -0.702383110 1
    -3.139075440      0.309057030     -1.412756710 1
    -3.139108710      0.309029960      1.412756700 1
    -1.486600820     -2.781823890     -0.702417280 1
    -1.486566810     -2.781818220      0.702396530 1
    -2.438120870     -2.001088710      1.412626810 1
    -3.018438460     -0.915384690      0.702322040 1
     2.001146880     -2.438101870     -1.412695750 1
     0.915527970     -3.018412790     -0.702383110 1
    -0.309057030     -3.139075440     -1.412756710 1
    -0.309029960     -3.139108710      1.412756700 1
     2.781823890     -1.486600820     -0.702417280 1
     2.781818220     -1.486566810      0.702396530 1
     2.001088720     -2.438120870      1.412626800 1
     0.915384690     -3.018438460      0.702322040 1
     2.438101870      2.001146880     -1.412695750 1
     3.018412790      0.915527980     -0.702383110 1
     3.139075440     -0.309057020     -1.412756710 1
     3.139108710     -0.309029960      1.412756700 1
     1.486600810      2.781823890     -0.702417270 1
     1.486566800      2.781818220      0.702396530 1
     2.438120860      2.001088720      1.412626810 1
     3.018438460      0.915384690      0.702322040 1
     0.309057020      3.139075440     -1.412756710 1
     0.309029960      3.139108710      1.412756710 1
%endblock AtomicCoordinatesAndAtomicSpecies
%block kgrid_Monkhorst_Pack
     1       0       0   0.0
     0       1       0   0.0
     0       0       60  0.0
%endblock kgrid_Monkhorst_Pack
%block ProjectedDensityOfStates
   -24.00  15.00  0.100  1000  eV
%endblock ProjectedDensityOfStates
BandLineScale  pi/a
%block Bandlines
1  0.000 0.000 0.000 "\Gamma"   #start at gamma
99 0.000 0.000 0.235 "X"        #99 k points to x
%endblock BandLines
WriteBands     True
************************** End of input data file *****************************

reinit: -----------------------------------------------------------------------
reinit: System Name: siesta
reinit: -----------------------------------------------------------------------
reinit: System Label: siesta
reinit: -----------------------------------------------------------------------

initatom: Reading input for the pseudopotentials and atomic orbitals ----------
Species number:   1 Atomic number:    6 Label: C

Ground state valence configuration:   2s02  2p02
Reading pseudopotential information in formatted form from C.psf

Valence configuration for pseudopotential generation:
2s( 2.00) rc: 1.54
2p( 2.00) rc: 1.54
3d( 0.00) rc: 1.54
4f( 0.00) rc: 1.54
resizes: Read basis size for species C = dzp                 
For C, standard SIESTA heuristics set lmxkb to 3
 (one more than the basis l, including polarization orbitals).
Use PS.lmax or PS.KBprojectors blocks to override.

<basis_specs>
===============================================================================
C                    Z=   6    Mass=  12.010        Charge= 0.17977+309
Lmxo=1 Lmxkb= 3    BasisType=split      Semic=F
L=0  Nsemic=0  Cnfigmx=2
          i=1  nzeta=2  polorb=0  (2s)
            splnorm:   0.15000    
               vcte:    0.0000    
               rinn:    0.0000    
               qcoe:    0.0000    
               qyuk:    0.0000    
               qwid:   0.10000E-01
                rcs:    0.0000      0.0000    
            lambdas:    1.0000      1.0000    
L=1  Nsemic=0  Cnfigmx=2
          i=1  nzeta=2  polorb=1  (2p)
            splnorm:   0.15000    
               vcte:    0.0000    
               rinn:    0.0000    
               qcoe:    0.0000    
               qyuk:    0.0000    
               qwid:   0.10000E-01
                rcs:    0.0000      0.0000    
            lambdas:    1.0000      1.0000    
-------------------------------------------------------------------------------
L=0  Nkbl=1  erefs: 0.17977+309
L=1  Nkbl=1  erefs: 0.17977+309
L=2  Nkbl=1  erefs: 0.17977+309
L=3  Nkbl=1  erefs: 0.17977+309
===============================================================================
</basis_specs>

atom: Called for C                     (Z =   6)

read_vps: Pseudopotential generation method:
read_vps: ATM3      Troullier-Martins                       
Valence charge for ps generation:    4.00000

xc_check: Exchange-correlation functional:
xc_check: Ceperley-Alder
V l=0 = -2*Zval/r beyond r=  1.5227
V l=1 = -2*Zval/r beyond r=  1.5227
V l=2 = -2*Zval/r beyond r=  1.5227
V l=3 = -2*Zval/r beyond r=  1.5038
All V_l potentials equal beyond r=  1.5227
This should be close to max(r_c) in ps generation
All pots = -2*Zval/r beyond r=  1.5227

VLOCAL1: 99.0% of the norm of Vloc inside     18.722 Ry
VLOCAL1: 99.9% of the norm of Vloc inside     42.668 Ry
atom: Maximum radius for 4*pi*r*r*local-pseudopot. charge    1.83678
atom: Maximum radius for r*vlocal+2*Zval:    1.58088
GHOST: No ghost state for L =  0
GHOST: No ghost state for L =  1
GHOST: No ghost state for L =  2
GHOST: No ghost state for L =  3

KBgen: Kleinman-Bylander projectors: 
   l= 0   rc=  1.747182   el= -1.001948   Ekb=  4.950286   kbcos=  0.319819
   l= 1   rc=  1.747182   el= -0.398598   Ekb= -4.108613   kbcos= -0.367053
   l= 2   rc=  1.930978   el=  0.002326   Ekb= -1.042946   kbcos= -0.009366
   l= 3   rc=  2.055542   el=  0.003420   Ekb= -0.408633   kbcos= -0.001262

KBgen: Total number of Kleinman-Bylander projectors:   16
atom: -------------------------------------------------------------------------

atom: SANKEY-TYPE ORBITALS:
atom: Selected multiple-zeta basis: split     

SPLIT: Orbitals with angular momentum L= 0

SPLIT: Basis orbitals for state 2s

SPLIT: PAO cut-off radius determined from an
SPLIT: energy shift=  0.003675 Ry

   izeta = 1
                 lambda =    1.000000
                     rc =    5.120028
                 energy =   -0.998767
                kinetic =    0.821771
    potential(screened) =   -1.820539
       potential(ionic) =   -5.388409

   izeta = 2
                 rmatch =    3.518811
              splitnorm =    0.150000
                 energy =   -0.873020
                kinetic =    1.256076
    potential(screened) =   -2.129096
       potential(ionic) =   -5.956015

SPLIT: Orbitals with angular momentum L= 1

SPLIT: Basis orbitals for state 2p

SPLIT: PAO cut-off radius determined from an
SPLIT: energy shift=  0.003675 Ry

   izeta = 1
                 lambda =    1.000000
                     rc =    6.253707
                 energy =   -0.395148
                kinetic =    2.370497
    potential(screened) =   -2.765644
       potential(ionic) =   -6.191332

   izeta = 2
                 rmatch =    3.745781
              splitnorm =    0.150000
                 energy =   -0.266174
                kinetic =    3.541877
    potential(screened) =   -3.808051
       potential(ionic) =   -7.637171

POLgen: Perturbative polarization orbital with L=  2

POLgen: Polarization orbital for state 2p

   izeta = 1
                     rc =    6.253707
                 energy =    1.011794
                kinetic =    2.139817
    potential(screened) =   -1.128023
       potential(ionic) =   -3.866082
atom: Total number of Sankey-type orbitals: 13

atm_pop: Valence configuration (for local Pseudopot. screening):
 2s( 2.00)                                                            
 2p( 2.00)                                                            
Vna: chval, zval:    4.00000   4.00000

Vna:  Cut-off radius for the neutral-atom potential:   6.253707

atom: _________________________________________________________________________

prinput: Basis input ----------------------------------------------------------

PAO.BasisType split     

%block ChemicalSpeciesLabel
    1    6 C                       # Species index, atomic number, species label
%endblock ChemicalSpeciesLabel

%block PAO.Basis                 # Define Basis set
C                     2                    # Species label, number of l-shells
 n=2   0   2                         # n, l, Nzeta 
   5.120      3.519   
   1.000      1.000   
 n=2   1   2 P   1                   # n, l, Nzeta, Polarization, NzetaPol
   6.254      3.746   
   1.000      1.000   
%endblock PAO.Basis

prinput: ----------------------------------------------------------------------

Dumping basis to NetCDF file C.ion.nc
coor:   Atomic-coordinates input format  =     Cartesian coordinates
coor:                                          (in Angstroms)

siesta: Atomic coordinates (Bohr) and species
siesta:     -3.78162   4.60735  -2.66961  1        1
siesta:     -1.73010   5.70398  -1.32731  1        2
siesta:     -5.25689   2.80927  -1.32738  1        3
siesta:     -5.25688   2.80921   1.32734  1        4
siesta:     -3.78151   4.60738   2.66948  1        5
siesta:     -1.72983   5.70402   1.32720  1        6
siesta:     -4.60735  -3.78162  -2.66961  1        7
siesta:     -5.70398  -1.73010  -1.32731  1        8
siesta:     -5.93200   0.58403  -2.66972  1        9
siesta:     -5.93206   0.58398   2.66972  1       10
siesta:     -2.80927  -5.25689  -1.32738  1       11
siesta:     -2.80921  -5.25688   1.32734  1       12
siesta:     -4.60738  -3.78151   2.66948  1       13
siesta:     -5.70402  -1.72983   1.32720  1       14
siesta:      3.78162  -4.60735  -2.66961  1       15
siesta:      1.73010  -5.70398  -1.32731  1       16
siesta:     -0.58403  -5.93200  -2.66972  1       17
siesta:     -0.58398  -5.93206   2.66972  1       18
siesta:      5.25689  -2.80927  -1.32738  1       19
siesta:      5.25688  -2.80921   1.32734  1       20
siesta:      3.78151  -4.60738   2.66948  1       21
siesta:      1.72983  -5.70402   1.32720  1       22
siesta:      4.60735   3.78162  -2.66961  1       23
siesta:      5.70398   1.73010  -1.32731  1       24
siesta:      5.93200  -0.58403  -2.66972  1       25
siesta:      5.93206  -0.58398   2.66972  1       26
siesta:      2.80927   5.25689  -1.32738  1       27
siesta:      2.80921   5.25688   1.32734  1       28
siesta:      4.60738   3.78151   2.66948  1       29
siesta:      5.70402   1.72983   1.32720  1       30
siesta:      0.58403   5.93200  -2.66972  1       31
siesta:      0.58398   5.93206   2.66972  1       32

siesta: System type = chain     

initatomlists: Number of atoms, orbitals, and projectors:     32   416   512

coxmol: Writing XMOL coordinates into file siesta.xyz                                                          

siesta: ******************** Simulation parameters ****************************
siesta:
siesta: The following are some of the parameters of the simulation.
siesta: A complete list of the parameters used, including default values,
siesta: can be found in file out.fdf
siesta:
redata: Spin configuration                          = collinear
redata: Number of spin components                   = 2
redata: Time-Reversal Symmetry                      = T
redata: Spin spiral                                 = F
redata: Long output                                 =   F
redata: Number of Atomic Species                    =        1
redata: Charge density info will appear in .RHO file
redata: Write Mulliken Pop.                         = NO
redata: Matel table size (NRTAB)                    =     1024
redata: Mesh Cutoff                                 =   199.9982 Ry
redata: Net charge of the system                    =     0.0000 |e|
redata: Min. number of SCF Iter                     =        0
redata: Max. number of SCF Iter                     =    10000
redata: SCF mix quantity                            = Hamiltonian
redata: Mix DM or H after convergence               =   F
redata: Recompute H after scf cycle                 =   F
redata: Mix DM in first SCF step                    =   T
redata: Write Pulay info on disk                    =   F
redata: New DM Occupancy tolerance                  = 0.000000000001
redata: No kicks to SCF
redata: DM Mixing Weight for Kicks                  =     0.5000
redata: Require Harris convergence for SCF          =   F
redata: Harris energy tolerance for SCF             =     0.000100 eV
redata: Require DM convergence for SCF              =   T
redata: DM tolerance for SCF                        =     0.000100
redata: Require EDM convergence for SCF             =   F
redata: EDM tolerance for SCF                       =     0.001000 eV
redata: Require H convergence for SCF               =   T
redata: Hamiltonian tolerance for SCF               =     0.001000 eV
redata: Require (free) Energy convergence for SCF   =   F
redata: (free) Energy tolerance for SCF             =     0.000100 eV
redata: Antiferro initial spin density              =   F
redata: Using Saved Data (generic)                  =   F
redata: Use continuation files for DM               =   T
redata: Neglect nonoverlap interactions             =   F
redata: Method of Calculation                       = Diagonalization
redata: Electronic Temperature                      =   299.9869 K
redata: Fix the spin of the system                  =   F
redata: Dynamics option                             = CG coord. optimization
redata: Variable cell                               =   F
redata: Use continuation files for CG               =   F
redata: Max atomic displ per move                   =     0.1058 Ang
redata: Maximum number of optimization moves        =      300
redata: Force tolerance                             =     0.0200 eV/Ang
mix.SCF: Pulay mixing                            = Pulay
mix.SCF:    Variant                              = stable
mix.SCF:    History steps                        = 4
mix.SCF:    Linear mixing weight                 =     0.300000
mix.SCF:    Mixing weight                        =     0.300000
mix.SCF:    SVD condition                        = 0.1000E-07
mix.SCF: Spin-component mixing                   all
redata: Save all siesta data in one NC              =   F
redata: ***********************************************************************

%block SCF.Mixers
  Pulay
%endblock SCF.Mixers

%block SCF.Mixer.Pulay
  # Mixing method
  method pulay
  variant stable

  # Mixing options
  weight 0.3000
  weight.linear 0.3000
  history 4
%endblock SCF.Mixer.Pulay

DM_history_depth set to one: no extrapolation allowed by default for geometry relaxation
Size of DM history Fstack: 1
Total number of electrons:   128.000000
Total ionic charge:   128.000000

* ProcessorY, Blocksize:    4  24


* Orbital distribution balance (max,min):    48    24

k-point displ. along   3 input, could be:     0.00    0.50
 Kpoints in:           31 . Kpoints trimmed:           31

siesta: k-grid: Number of k-points =    31
siesta: k-grid: Cutoff (effective) =    20.000 Ang
siesta: k-grid: Supercell and displacements
siesta: k-grid:    1   0   0      0.000
siesta: k-grid:    0   1   0      0.000
siesta: k-grid:    0   0  60      0.000

diag: Algorithm                                     = D&C
diag: Parallel over k                               =   F
diag: Use parallel 2D distribution                  =   T
diag: Parallel block-size                           = 24
diag: Parallel distribution                         =     4 x     4
diag: Used triangular part                          = Lower
diag: Absolute tolerance                            =  0.100E-15
diag: Orthogonalization factor                      =  0.100E-05
diag: Memory factor                                 =  1.0000
Using LatticeConstant from fdf file for BandLinesScale:    1.889727 Bohr
Beware any cell changes by the end of the run
Using LatticeConstant from fdf file for BandLinesScale:    1.889727 Bohr
Beware any cell changes by the end of the run

superc: Internal auxiliary supercell:     1 x     1 x     5  =       5
superc: Number of atoms, orbitals, and projectors:    160   2080   2560


ts: **************************************************************
ts: Save H and S matrices                           =    F
ts: Save DM and EDM matrices                        =    F
ts: Only save the overlap matrix S                  =    F
ts: **************************************************************

************************ Begin: TS CHECKS AND WARNINGS ************************
************************ End: TS CHECKS AND WARNINGS **************************


                     ====================================
                        Begin CG opt. move =      0
                     ====================================

superc: Internal auxiliary supercell:     1 x     1 x     5  =       5
superc: Number of atoms, orbitals, and projectors:    160   2080   2560

outcell: Unit cell vectors (Ang):
       40.000000    0.000000    0.000000
        0.000000   40.000000    0.000000
        0.000000    0.000000    4.230000

outcell: Cell vector modules (Ang)   :   40.000000   40.000000    4.230000
outcell: Cell angles (23,13,12) (deg):     90.0000     90.0000     90.0000
outcell: Cell volume (Ang**3)        :   6768.0000
<dSpData1D:S at geom step 0
  <sparsity:sparsity for geom step 0
    nrows_g=416 nrows=48 sparsity=.2615 nnzs=45258, refcount: 7>
  <dData1D:(new from dSpData1D) n=45258, refcount: 1>
refcount: 1>
new_DM -- step:     1
Initializing Density Matrix...

Attempting to read DM from file... Failed...
DM filled with atomic data:
<dSpData2D:DM initialized from atoms
  <sparsity:sparsity for geom step 0
    nrows_g=416 nrows=48 sparsity=.2615 nnzs=45258, refcount: 8>
  <dData2D:DM n=45258 m=2, refcount: 1>
refcount: 1>
     spin moment: S , {S} =   64.00000       0.0       0.0  64.00000
No. of atoms with KB's overlaping orbs in proc 0. Max # of overlaps:      53     271
New grid distribution:   1
           1       1:  180    1:   45    1:    5
           2       1:  180    1:   45    6:   10
           3       1:  180    1:   45   11:   14
           4       1:  180    1:   45   15:   18
           5       1:  180   46:   90    1:    5
           6       1:  180   46:   90    6:   10
           7       1:  180   46:   90   11:   14
           8       1:  180   46:   90   15:   18
           9       1:  180   91:  135    1:    5
          10       1:  180   91:  135    6:   10
          11       1:  180   91:  135   11:   14
          12       1:  180   91:  135   15:   18
          13       1:  180  136:  180    1:    5
          14       1:  180  136:  180    6:   10
          15       1:  180  136:  180   11:   14
          16       1:  180  136:  180   15:   18

InitMesh: MESH =   360 x   360 x    36 =     4665600
InitMesh: (bp) =   180 x   180 x    18 =      583200
InitMesh: Mesh cutoff (required, used) =   199.998   200.182 Ry
ExtMesh (bp) on 0 =   240 x   105 x    65 =     1638000
New grid distribution:   2
           1      24:  173    9:   23    1:   18
           2       8:   23    9:   23    1:   18
           3       1:    7    9:   23    1:   18
           4     171:  180    1:    8    1:   18
           5      24:  173   24:  172    1:   18
           6       1:    7   24:  172    1:   18
           7     174:  180    9:   23    1:   18
           8       1:   10    1:    8    1:   18
           9       8:   23   24:  172    1:   18
          10     174:  180   24:  172    1:   18
          11      11:   23    1:    8    1:   18
          12       1:   10  173:  180    1:   18
          13      24:  170    1:    8    1:   18
          14      24:  170  173:  180    1:   18
          15      11:   23  173:  180    1:   18
          16     171:  180  173:  180    1:   18
New grid distribution:   3
           1      44:  170   13:   56    1:   18
           2      11:   43   13:   56    1:   18
           3       1:   10   13:   56    1:   18
           4     167:  180    1:   12    1:   18
           5      11:   66   57:  168    1:   18
           6       1:   10   57:  168    1:   18
           7     171:  180   13:   56    1:   18
           8       1:   14    1:   12    1:   18
           9      67:  169   57:  168    1:   18
          10     170:  180   57:  168    1:   18
          11      15:   43    1:   12    1:   18
          12       1:   14  169:  180    1:   18
          13      44:  166    1:   12    1:   18
          14      67:  166  169:  180    1:   18
          15      15:   66  169:  180    1:   18
          16     167:  180  169:  180    1:   18
Setting up quadratic distribution...
ExtMesh (bp) on 0 =   210 x    75 x    78 =     1228500
PhiOnMesh: Number of (b)points on node 0 =                40500
PhiOnMesh: nlist on node 0 =               342232

stepf: Fermi-Dirac step function

siesta: Program's energy decomposition (eV):
siesta: Ebs     =     -1452.577091
siesta: Eions   =      8179.116033
siesta: Ena     =      1792.797528
siesta: Ekin    =      3643.147052
siesta: Enl     =      -463.315665
siesta: Eso     =         0.000000
siesta: Edftu   =         0.000000
siesta: DEna    =      -242.061940
siesta: DUscf   =        25.052653
siesta: DUext   =         0.000000
siesta: Exc     =     -1532.626644
siesta: eta*DQ  =         0.000000
siesta: Emadel  =         0.000000
siesta: Emeta   =         0.000000
siesta: Emolmec =         0.000000
siesta: Ekinion =         0.000000
siesta: Eharris =     -4857.450234
siesta: Etot    =     -4956.123048
siesta: FreeEng =     -4956.133193

        iscf     Eharris(eV)        E_KS(eV)     FreeEng(eV)     dDmax    Ef(eV) dHmax(eV)
   scf:    1    -4857.450234    -4956.123048    -4956.133193  0.911915 -7.455047  7.873832
     spin moment: S , {S} =    3.99965       0.0       0.0   3.99965
timer: Routine,Calls,Time,% = IterSCF        1       5.624  73.08
   scf:    2    -4966.133045    -4961.415535    -4961.424269  0.035031 -5.931726  4.018558
     spin moment: S , {S} =    2.60508       0.0       0.0   2.60508
   scf:    3    -4967.378575    -4964.476820    -4964.483645  0.031769 -4.726297  1.045450
     spin moment: S , {S} =    0.66297       0.0       0.0   0.66297
   scf:    4    -4965.351467    -4964.931595    -4964.931787  0.014932 -4.591761  0.376442
     spin moment: S , {S} =    0.00120       0.0       0.0   0.00120
   scf:    5    -4964.963885    -4964.949377    -4964.949378  0.006414 -4.725065  0.082681
     spin moment: S , {S} =    0.00000       0.0       0.0   0.00000
   scf:    6    -4964.950998    -4964.950367    -4964.950368  0.000800 -4.750197  0.010143
     spin moment: S , {S} =    0.00000       0.0       0.0   0.00000
   scf:    7    -4964.950512    -4964.950443    -4964.950444  0.000163 -4.748237  0.005399
     spin moment: S , {S} =    0.00000       0.0       0.0   0.00000
   scf:    8    -4964.950571    -4964.950506    -4964.950507  0.000217 -4.746302  0.001840
     spin moment: S , {S} =    0.00000       0.0       0.0   0.00000
   scf:    9    -4964.950527    -4964.950512    -4964.950513  0.000166 -4.745796  0.000562
     spin moment: S , {S} =    0.00000       0.0       0.0   0.00000
   scf:   10    -4964.950512    -4964.950512    -4964.950513  0.000007 -4.745910  0.000323
     spin moment: S , {S} =    0.00000       0.0       0.0   0.00000

SCF Convergence by DM+H criterion
max |DM_out - DM_in|         :     0.0000069653
max |H_out - H_in|      (eV) :     0.0003232952
SCF cycle converged after 10 iterations

Using DM_out to compute the final energy and forces
No. of atoms with KB's overlaping orbs in proc 0. Max # of overlaps:      53     271

siesta: E_KS(eV) =            -4964.9505

siesta: E_KS - E_eggbox =     -4964.9505
     spin moment: S , {S} =    0.00000       0.0       0.0   0.00000

siesta: Atomic forces (eV/Ang):
----------------------------------------
   Tot    0.000000    0.000000   -0.000459
----------------------------------------
   Max    0.194242
   Res    0.117330    sqrt( Sum f_i^2 / 3N )
----------------------------------------
   Max    0.194242    constrained

Stress tensor Voigt[x,y,z,yz,xz,xy] (kbar):       -2.30       -2.30       -4.66        0.00        0.00       -0.00
(Free)E + p*V (eV/cell)    -4951.8981
Target enthalpy (eV/cell)    -4964.9505

                     ====================================
                        Begin CG opt. move =      1
                     ====================================

superc: Internal auxiliary supercell:     1 x     1 x     5  =       5
superc: Number of atoms, orbitals, and projectors:    160   2080   2560

outcell: Unit cell vectors (Ang):
       40.000000    0.000000    0.000000
        0.000000   40.000000    0.000000
        0.000000    0.000000    4.230000

outcell: Cell vector modules (Ang)   :   40.000000   40.000000    4.230000
outcell: Cell angles (23,13,12) (deg):     90.0000     90.0000     90.0000
outcell: Cell volume (Ang**3)        :   6768.0000
<dSpData1D:S at geom step 1
  <sparsity:sparsity for geom step 1
    nrows_g=416 nrows=48 sparsity=.2615 nnzs=45258, refcount: 7>
  <dData1D:(new from dSpData1D) n=45258, refcount: 1>
refcount: 1>
new_DM -- step:     2
Re-using DM from previous geometries...
Number of DMs in history: 1
 DM extrapolation coefficients: 
1   1.00000
New DM after history re-use:
<dSpData2D:SpM extrapolated using coords
  <sparsity:sparsity for geom step 1
    nrows_g=416 nrows=48 sparsity=.2615 nnzs=45258, refcount: 9>
  <dData2D:(temp array for extrapolation) n=45258 m=2, refcount: 1>
refcount: 1>
     spin moment: S , {S} =   -0.00000       0.0       0.0  -0.00000
Note: For starting DM, Qtot, Tr[D*S] =        128.00000000        127.87184772
No. of atoms with KB's overlaping orbs in proc 0. Max # of overlaps:      53     271
New grid distribution:   1
           1       1:  180    1:   45    1:    5
           2       1:  180    1:   45    6:   10
           3       1:  180    1:   45   11:   14
           4       1:  180    1:   45   15:   18
           5       1:  180   46:   90    1:    5
           6       1:  180   46:   90    6:   10
           7       1:  180   46:   90   11:   14
           8       1:  180   46:   90   15:   18
           9       1:  180   91:  135    1:    5
          10       1:  180   91:  135    6:   10
          11       1:  180   91:  135   11:   14
          12       1:  180   91:  135   15:   18
          13       1:  180  136:  180    1:    5
          14       1:  180  136:  180    6:   10
          15       1:  180  136:  180   11:   14
          16       1:  180  136:  180   15:   18

InitMesh: MESH =   360 x   360 x    36 =     4665600
InitMesh: (bp) =   180 x   180 x    18 =      583200
InitMesh: Mesh cutoff (required, used) =   199.998   200.182 Ry
ExtMesh (bp) on 0 =   240 x   105 x    65 =     1638000
New grid distribution:   2
           1      24:  173    9:   23    1:   18
           2       8:   23    9:   23    1:   18
           3       1:    7    9:   23    1:   18
           4     171:  180    1:    8    1:   18
           5      24:  173   24:  172    1:   18
           6       1:    7   24:  172    1:   18
           7     174:  180    9:   23    1:   18
           8       1:   10    1:    8    1:   18
           9       8:   23   24:  172    1:   18
          10     174:  180   24:  172    1:   18
          11      11:   23    1:    8    1:   18
          12       1:   10  173:  180    1:   18
          13      24:  170    1:    8    1:   18
          14      24:  170  173:  180    1:   18
          15      11:   23  173:  180    1:   18
          16     171:  180  173:  180    1:   18
New grid distribution:   3
           1      37:  170   13:   57    1:   18
           2      11:   36   13:   57    1:   18
           3       1:   10   13:   57    1:   18
           4     167:  180    1:   12    1:   18
           5      11:   68   58:  168    1:   18
           6       1:   10   58:  168    1:   18
           7     171:  180   13:   57    1:   18
           8       1:   14    1:   12    1:   18
           9      69:  169   58:  168    1:   18
          10     170:  180   58:  168    1:   18
          11      15:   36    1:   12    1:   18
          12       1:   14  169:  180    1:   18
          13      37:  166    1:   12    1:   18
          14      69:  166  169:  180    1:   18
          15      15:   68  169:  180    1:   18
          16     167:  180  169:  180    1:   18
Setting up quadratic distribution...
ExtMesh (bp) on 0 =   210 x    75 x    78 =     1228500
PhiOnMesh: Number of (b)points on node 0 =                40500
PhiOnMesh: nlist on node 0 =               344457

        iscf     Eharris(eV)        E_KS(eV)     FreeEng(eV)     dDmax    Ef(eV) dHmax(eV)
   scf:    1    -4966.125368    -4964.998281    -4964.998281  0.008476 -4.676967  0.129494
     spin moment: S , {S} =    0.00000       0.0       0.0   0.00000
   scf:    2    -4964.977831    -4964.993188    -4964.993189  0.001655 -4.755068  0.205198
     spin moment: S , {S} =    0.00000       0.0       0.0   0.00000
   scf:    3    -4965.002305    -4965.000162    -4965.000162  0.000916 -4.709180  0.011192
     spin moment: S , {S} =    0.00000       0.0       0.0   0.00000
   scf:    4    -4965.000201    -4965.000176    -4965.000176  0.000138 -4.712955  0.002551
     spin moment: S , {S} =    0.00000       0.0       0.0   0.00000
   scf:    5    -4965.000179    -4965.000178    -4965.000178  0.000038 -4.713775  0.000393
     spin moment: S , {S} =    0.00000       0.0       0.0   0.00000

SCF Convergence by DM+H criterion
max |DM_out - DM_in|         :     0.0000376319
max |H_out - H_in|      (eV) :     0.0003930469
SCF cycle converged after 5 iterations

Using DM_out to compute the final energy and forces
No. of atoms with KB's overlaping orbs in proc 0. Max # of overlaps:      53     271

siesta: E_KS(eV) =            -4965.0002
     spin moment: S , {S} =    0.00000       0.0       0.0   0.00000

siesta: Atomic forces (eV/Ang):
----------------------------------------
   Tot   -0.000001   -0.000009   -0.003517
----------------------------------------
   Max    0.549247
   Res    0.300482    sqrt( Sum f_i^2 / 3N )
----------------------------------------
   Max    0.549247    constrained

Stress tensor Voigt[x,y,z,yz,xz,xy] (kbar):       -1.42       -1.42       -3.46       -0.00       -0.00        0.00
(Free)E + p*V (eV/cell)    -4956.1436
Target enthalpy (eV/cell)    -4965.0002

                     ====================================
                        Begin CG opt. move =      2
                     ====================================

superc: Internal auxiliary supercell:     1 x     1 x     5  =       5
superc: Number of atoms, orbitals, and projectors:    160   2080   2560

outcell: Unit cell vectors (Ang):
       40.000000    0.000000    0.000000
        0.000000   40.000000    0.000000
        0.000000    0.000000    4.230000

outcell: Cell vector modules (Ang)   :   40.000000   40.000000    4.230000
outcell: Cell angles (23,13,12) (deg):     90.0000     90.0000     90.0000
outcell: Cell volume (Ang**3)        :   6768.0000
<dSpData1D:S at geom step 2
  <sparsity:sparsity for geom step 2
    nrows_g=416 nrows=48 sparsity=.2615 nnzs=45258, refcount: 7>
  <dData1D:(new from dSpData1D) n=45258, refcount: 1>
refcount: 1>
new_DM -- step:     3
Re-using DM from previous geometries...
Number of DMs in history: 1
 DM extrapolation coefficients: 
1   1.00000
New DM after history re-use:
<dSpData2D:SpM extrapolated using coords
  <sparsity:sparsity for geom step 2
    nrows_g=416 nrows=48 sparsity=.2615 nnzs=45258, refcount: 9>
  <dData2D:(temp array for extrapolation) n=45258 m=2, refcount: 1>
refcount: 1>
     spin moment: S , {S} =    0.00000       0.0       0.0   0.00000
No. of atoms with KB's overlaping orbs in proc 0. Max # of overlaps:      53     271
New grid distribution:   1
           1       1:  180    1:   45    1:    5
           2       1:  180    1:   45    6:   10
           3       1:  180    1:   45   11:   14
           4       1:  180    1:   45   15:   18
           5       1:  180   46:   90    1:    5
           6       1:  180   46:   90    6:   10
           7       1:  180   46:   90   11:   14
           8       1:  180   46:   90   15:   18
           9       1:  180   91:  135    1:    5
          10       1:  180   91:  135    6:   10
          11       1:  180   91:  135   11:   14
          12       1:  180   91:  135   15:   18
          13       1:  180  136:  180    1:    5
          14       1:  180  136:  180    6:   10
          15       1:  180  136:  180   11:   14
          16       1:  180  136:  180   15:   18

InitMesh: MESH =   360 x   360 x    36 =     4665600
InitMesh: (bp) =   180 x   180 x    18 =      583200
InitMesh: Mesh cutoff (required, used) =   199.998   200.182 Ry
ExtMesh (bp) on 0 =   240 x   105 x    65 =     1638000
New grid distribution:   2
           1      24:  173    9:   23    1:   18
           2       8:   23    9:   23    1:   18
           3       1:    7    9:   23    1:   18
           4     171:  180    1:    8    1:   18
           5      24:  173   24:  172    1:   18
           6       1:    7   24:  172    1:   18
           7     174:  180    9:   23    1:   18
           8       1:   10    1:    8    1:   18
           9       8:   23   24:  172    1:   18
          10     174:  180   24:  172    1:   18
          11      11:   23    1:    8    1:   18
          12       1:   10  173:  180    1:   18
          13      24:  170    1:    8    1:   18
          14      24:  170  173:  180    1:   18
          15      11:   23  173:  180    1:   18
          16     171:  180  173:  180    1:   18
New grid distribution:   3
           1      39:  170   13:   57    1:   18
           2      11:   38   13:   57    1:   18
           3       1:   10   13:   57    1:   18
           4     167:  180    1:   12    1:   18
           5      11:   67   58:  168    1:   18
           6       1:   10   58:  168    1:   18
           7     171:  180   13:   57    1:   18
           8       1:   14    1:   12    1:   18
           9      68:  169   58:  168    1:   18
          10     170:  180   58:  168    1:   18
          11      15:   38    1:   12    1:   18
          12       1:   14  169:  180    1:   18
          13      39:  166    1:   12    1:   18
          14      68:  166  169:  180    1:   18
          15      15:   67  169:  180    1:   18
          16     167:  180  169:  180    1:   18
Setting up quadratic distribution...
ExtMesh (bp) on 0 =   210 x    75 x    78 =     1228500
PhiOnMesh: Number of (b)points on node 0 =                40500
PhiOnMesh: nlist on node 0 =               344118

        iscf     Eharris(eV)        E_KS(eV)     FreeEng(eV)     dDmax    Ef(eV) dHmax(eV)
   scf:    1    -4964.830291    -4965.001794    -4965.001795  0.001306 -4.723954  0.020498
     spin moment: S , {S} =    0.00000       0.0       0.0   0.00000
   scf:    2    -4965.001264    -4965.001651    -4965.001651  0.000260 -4.711668  0.032871
     spin moment: S , {S} =    0.00000       0.0       0.0   0.00000
   scf:    3    -4965.001888    -4965.001834    -4965.001834  0.000145 -4.718903  0.001829
     spin moment: S , {S} =    0.00000       0.0       0.0   0.00000
   scf:    4    -4965.001843    -4965.001843    -4965.001843  0.000022 -4.718310  0.000474
     spin moment: S , {S} =    0.00000       0.0       0.0   0.00000

SCF Convergence by DM+H criterion
max |DM_out - DM_in|         :     0.0000219310
max |H_out - H_in|      (eV) :     0.0004744982
SCF cycle converged after 4 iterations

Using DM_out to compute the final energy and forces
No. of atoms with KB's overlaping orbs in proc 0. Max # of overlaps:      53     271

siesta: E_KS(eV) =            -4965.0018
     spin moment: S , {S} =    0.00000       0.0       0.0   0.00000

siesta: Atomic forces (eV/Ang):
----------------------------------------
   Tot    0.000080   -0.000045    0.000026
----------------------------------------
   Max    0.457606
   Res    0.254247    sqrt( Sum f_i^2 / 3N )
----------------------------------------
   Max    0.457606    constrained

Stress tensor Voigt[x,y,z,yz,xz,xy] (kbar):       -1.55       -1.55       -3.64       -0.00        0.00       -0.00
(Free)E + p*V (eV/cell)    -4955.5093
Target enthalpy (eV/cell)    -4965.0018

cgvc: Finished line minimization    1.  Mean atomic displacement =    0.0299

                     ====================================
                        Begin CG opt. move =      3
                     ====================================

superc: Internal auxiliary supercell:     1 x     1 x     5  =       5
superc: Number of atoms, orbitals, and projectors:    160   2080   2560

outcell: Unit cell vectors (Ang):
       40.000000    0.000000    0.000000
        0.000000   40.000000    0.000000
        0.000000    0.000000    4.230000

outcell: Cell vector modules (Ang)   :   40.000000   40.000000    4.230000
outcell: Cell angles (23,13,12) (deg):     90.0000     90.0000     90.0000
outcell: Cell volume (Ang**3)        :   6768.0000
<dSpData1D:S at geom step 3
  <sparsity:sparsity for geom step 3
    nrows_g=416 nrows=48 sparsity=.2615 nnzs=45258, refcount: 7>
  <dData1D:(new from dSpData1D) n=45258, refcount: 1>
refcount: 1>
new_DM -- step:     4
Re-using DM from previous geometries...
Number of DMs in history: 1
 DM extrapolation coefficients: 
1   1.00000
New DM after history re-use:
<dSpData2D:SpM extrapolated using coords
  <sparsity:sparsity for geom step 3
    nrows_g=416 nrows=48 sparsity=.2615 nnzs=45258, refcount: 9>
  <dData2D:(temp array for extrapolation) n=45258 m=2, refcount: 1>
refcount: 1>
     spin moment: S , {S} =   -0.00000       0.0       0.0  -0.00000
No. of atoms with KB's overlaping orbs in proc 0. Max # of overlaps:      53     271
New grid distribution:   1
           1       1:  180    1:   45    1:    5
           2       1:  180    1:   45    6:   10
           3       1:  180    1:   45   11:   14
           4       1:  180    1:   45   15:   18
           5       1:  180   46:   90    1:    5
           6       1:  180   46:   90    6:   10
           7       1:  180   46:   90   11:   14
           8       1:  180   46:   90   15:   18
           9       1:  180   91:  135    1:    5
          10       1:  180   91:  135    6:   10
          11       1:  180   91:  135   11:   14
          12       1:  180   91:  135   15:   18
          13       1:  180  136:  180    1:    5
          14       1:  180  136:  180    6:   10
          15       1:  180  136:  180   11:   14
          16       1:  180  136:  180   15:   18

InitMesh: MESH =   360 x   360 x    36 =     4665600
InitMesh: (bp) =   180 x   180 x    18 =      583200
InitMesh: Mesh cutoff (required, used) =   199.998   200.182 Ry
ExtMesh (bp) on 0 =   240 x   105 x    65 =     1638000
New grid distribution:   2
           1      24:  173    9:   23    1:   18
           2       8:   23    9:   23    1:   18
           3       1:    7    9:   23    1:   18
           4     171:  180    1:    8    1:   18
           5      24:  173   24:  172    1:   18
           6       1:    7   24:  172    1:   18
           7     174:  180    9:   23    1:   18
           8       1:   10    1:    8    1:   18
           9       8:   23   24:  172    1:   18
          10     174:  180   24:  172    1:   18
          11      11:   23    1:    8    1:   18
          12       1:   10  173:  180    1:   18
          13      24:  170    1:    8    1:   18
          14      24:  170  173:  180    1:   18
          15      11:   23  173:  180    1:   18
          16     171:  180  173:  180    1:   18
New grid distribution:   3
           1      37:  170   13:   58    1:   18
           2      11:   36   13:   58    1:   18
           3       1:   10   13:   58    1:   18
           4     167:  180    1:   12    1:   18
           5      37:  166    1:   12    1:   18
           6       1:   10   59:  168    1:   18
           7     171:  180   13:   58    1:   18
           8       1:   14    1:   12    1:   18
           9      69:  169   59:  168    1:   18
          10     170:  180   59:  168    1:   18
          11      15:   36    1:   12    1:   18
          12       1:   14  169:  180    1:   18
          13      11:   68   59:  168    1:   18
          14      69:  166  169:  180    1:   18
          15      15:   68  169:  180    1:   18
          16     167:  180  169:  180    1:   18
Setting up quadratic distribution...
ExtMesh (bp) on 0 =   210 x    75 x    78 =     1228500
PhiOnMesh: Number of (b)points on node 0 =                40500
PhiOnMesh: nlist on node 0 =               346039

        iscf     Eharris(eV)        E_KS(eV)     FreeEng(eV)     dDmax    Ef(eV) dHmax(eV)
   scf:    1    -4966.068912    -4965.058414    -4965.058414  0.004016 -4.764608  0.061447
     spin moment: S , {S} =    0.00000       0.0       0.0   0.00000
   scf:    2    -4965.057895    -4965.058458    -4965.058459  0.001046 -4.800524  0.065234
     spin moment: S , {S} =   -0.00000       0.0       0.0  -0.00000
   scf:    3    -4965.058919    -4965.058810    -4965.058810  0.000449 -4.784169  0.005025
     spin moment: S , {S} =    0.00000       0.0       0.0   0.00000
   scf:    4    -4965.058822    -4965.058817    -4965.058817  0.000067 -4.785657  0.000978
     spin moment: S , {S} =    0.00000       0.0       0.0   0.00000

SCF Convergence by DM+H criterion
max |DM_out - DM_in|         :     0.0000666044
max |H_out - H_in|      (eV) :     0.0009781930
SCF cycle converged after 4 iterations

Using DM_out to compute the final energy and forces
No. of atoms with KB's overlaping orbs in proc 0. Max # of overlaps:      53     271

siesta: E_KS(eV) =            -4965.0588
     spin moment: S , {S} =    0.00000       0.0       0.0   0.00000

siesta: Atomic forces (eV/Ang):
----------------------------------------
   Tot    0.000001   -0.000002   -0.003507
----------------------------------------
   Max    0.115721
   Res    0.060961    sqrt( Sum f_i^2 / 3N )
----------------------------------------
   Max    0.115721    constrained

Stress tensor Voigt[x,y,z,yz,xz,xy] (kbar):       -0.35       -0.35       -3.60        0.00        0.00       -0.00
(Free)E + p*V (eV/cell)    -4959.0132
Target enthalpy (eV/cell)    -4965.0588

                     ====================================
                        Begin CG opt. move =      4
                     ====================================

superc: Internal auxiliary supercell:     1 x     1 x     5  =       5
superc: Number of atoms, orbitals, and projectors:    160   2080   2560

outcell: Unit cell vectors (Ang):
       40.000000    0.000000    0.000000
        0.000000   40.000000    0.000000
        0.000000    0.000000    4.230000

outcell: Cell vector modules (Ang)   :   40.000000   40.000000    4.230000
outcell: Cell angles (23,13,12) (deg):     90.0000     90.0000     90.0000
outcell: Cell volume (Ang**3)        :   6768.0000
<dSpData1D:S at geom step 4
  <sparsity:sparsity for geom step 4
    nrows_g=416 nrows=48 sparsity=.2560 nnzs=44298, refcount: 7>
  <dData1D:(new from dSpData1D) n=44298, refcount: 1>
refcount: 1>
new_DM -- step:     5
Re-using DM from previous geometries...
Number of DMs in history: 1
 DM extrapolation coefficients: 
1   1.00000
New DM after history re-use:
<dSpData2D:SpM extrapolated using coords
  <sparsity:sparsity for geom step 4
    nrows_g=416 nrows=48 sparsity=.2560 nnzs=44298, refcount: 9>
  <dData2D:(temp array for extrapolation) n=44298 m=2, refcount: 1>
refcount: 1>
     spin moment: S , {S} =   -0.00000       0.0       0.0  -0.00000
Note: For starting DM, Qtot, Tr[D*S] =        128.00000000        127.81901694
No. of atoms with KB's overlaping orbs in proc 0. Max # of overlaps:      53     271
New grid distribution:   1
           1       1:  180    1:   45    1:    5
           2       1:  180    1:   45    6:   10
           3       1:  180    1:   45   11:   14
           4       1:  180    1:   45   15:   18
           5       1:  180   46:   90    1:    5
           6       1:  180   46:   90    6:   10
           7       1:  180   46:   90   11:   14
           8       1:  180   46:   90   15:   18
           9       1:  180   91:  135    1:    5
          10       1:  180   91:  135    6:   10
          11       1:  180   91:  135   11:   14
          12       1:  180   91:  135   15:   18
          13       1:  180  136:  180    1:    5
          14       1:  180  136:  180    6:   10
          15       1:  180  136:  180   11:   14
          16       1:  180  136:  180   15:   18

InitMesh: MESH =   360 x   360 x    36 =     4665600
InitMesh: (bp) =   180 x   180 x    18 =      583200
InitMesh: Mesh cutoff (required, used) =   199.998   200.182 Ry
ExtMesh (bp) on 0 =   240 x   105 x    65 =     1638000
New grid distribution:   2
           1      24:  173    9:   23    1:   18
           2       8:   23   10:   23    1:   18
           3      11:   23    1:    9    1:   18
           4       1:   10    1:    9    1:   18
           5      24:  173   24:  172    1:   18
           6     174:  180   24:  172    1:   18
           7     174:  180    9:   23    1:   18
           8     171:  180  173:  180    1:   18
           9       8:   23   24:  171    1:   18
          10       1:    7   24:  171    1:   18
          11       1:    7   10:   23    1:   18
          12     171:  180    1:    8    1:   18
          13      24:  170    1:    8    1:   18
          14      24:  170  173:  180    1:   18
          15      11:   23  172:  180    1:   18
          16       1:   10  172:  180    1:   18
New grid distribution:   3
           1      32:  170   13:   57    1:   18
           2      11:   31   13:   57    1:   18
           3       1:   10   13:   57    1:   18
           4     167:  180    1:   12    1:   18
           5      11:   65   58:  168    1:   18
           6       1:   10   58:  168    1:   18
           7     171:  180   13:   57    1:   18
           8       1:   14    1:   12    1:   18
           9      66:  169   58:  168    1:   18
          10     170:  180   58:  168    1:   18
          11      15:   31    1:   12    1:   18
          12       1:   14  169:  180    1:   18
          13      32:  166    1:   12    1:   18
          14      66:  166  169:  180    1:   18
          15      15:   65  169:  180    1:   18
          16     167:  180  169:  180    1:   18
Setting up quadratic distribution...
ExtMesh (bp) on 0 =   210 x    75 x    78 =     1228500
PhiOnMesh: Number of (b)points on node 0 =                40500
PhiOnMesh: nlist on node 0 =               349293

        iscf     Eharris(eV)        E_KS(eV)     FreeEng(eV)     dDmax    Ef(eV) dHmax(eV)
   scf:    1    -4966.567092    -4965.002296    -4965.002297  0.005740 -4.859960  0.095949
     spin moment: S , {S} =    0.00000       0.0       0.0   0.00000
   scf:    2    -4965.000825    -4965.002318    -4965.002318  0.001628 -4.914152  0.109707
     spin moment: S , {S} =    0.00000       0.0       0.0   0.00000
   scf:    3    -4965.003510    -4965.003246    -4965.003246  0.000711 -4.889467  0.010051
     spin moment: S , {S} =   -0.00000       0.0       0.0  -0.00000
   scf:    4    -4965.003270    -4965.003258    -4965.003258  0.000096 -4.891524  0.003109
     spin moment: S , {S} =    0.00000       0.0       0.0   0.00000
   scf:    5    -4965.003257    -4965.003255    -4965.003256  0.000024 -4.891812  0.000674
     spin moment: S , {S} =    0.00000       0.0       0.0   0.00000

SCF Convergence by DM+H criterion
max |DM_out - DM_in|         :     0.0000239771
max |H_out - H_in|      (eV) :     0.0006737605
SCF cycle converged after 5 iterations

Using DM_out to compute the final energy and forces
No. of atoms with KB's overlaping orbs in proc 0. Max # of overlaps:      53     271

siesta: E_KS(eV) =            -4965.0033
     spin moment: S , {S} =    0.00000       0.0       0.0   0.00000

siesta: Atomic forces (eV/Ang):
----------------------------------------
   Tot    0.000002   -0.000001   -0.000551
----------------------------------------
   Max    0.435737
   Res    0.252996    sqrt( Sum f_i^2 / 3N )
----------------------------------------
   Max    0.435737    constrained

Stress tensor Voigt[x,y,z,yz,xz,xy] (kbar):        1.51        1.51       -3.58        0.00        0.00        0.00
(Free)E + p*V (eV/cell)    -4964.2086
Target enthalpy (eV/cell)    -4965.0033

                     ====================================
                        Begin CG opt. move =      5
                     ====================================

superc: Internal auxiliary supercell:     1 x     1 x     5  =       5
superc: Number of atoms, orbitals, and projectors:    160   2080   2560

outcell: Unit cell vectors (Ang):
       40.000000    0.000000    0.000000
        0.000000   40.000000    0.000000
        0.000000    0.000000    4.230000

outcell: Cell vector modules (Ang)   :   40.000000   40.000000    4.230000
outcell: Cell angles (23,13,12) (deg):     90.0000     90.0000     90.0000
outcell: Cell volume (Ang**3)        :   6768.0000
<dSpData1D:S at geom step 5
  <sparsity:sparsity for geom step 5
    nrows_g=416 nrows=48 sparsity=.2615 nnzs=45258, refcount: 7>
  <dData1D:(new from dSpData1D) n=45258, refcount: 1>
refcount: 1>
new_DM -- step:     6
Re-using DM from previous geometries...
Number of DMs in history: 1
 DM extrapolation coefficients: 
1   1.00000
New DM after history re-use:
<dSpData2D:SpM extrapolated using coords
  <sparsity:sparsity for geom step 5
    nrows_g=416 nrows=48 sparsity=.2615 nnzs=45258, refcount: 9>
  <dData2D:(temp array for extrapolation) n=45258 m=2, refcount: 1>
refcount: 1>
     spin moment: S , {S} =    0.00000       0.0       0.0   0.00000
Note: For starting DM, Qtot, Tr[D*S] =        128.00000000        128.14685273
No. of atoms with KB's overlaping orbs in proc 0. Max # of overlaps:      53     271
New grid distribution:   1
           1       1:  180    1:   45    1:    5
           2       1:  180    1:   45    6:   10
           3       1:  180    1:   45   11:   14
           4       1:  180    1:   45   15:   18
           5       1:  180   46:   90    1:    5
           6       1:  180   46:   90    6:   10
           7       1:  180   46:   90   11:   14
           8       1:  180   46:   90   15:   18
           9       1:  180   91:  135    1:    5
          10       1:  180   91:  135    6:   10
          11       1:  180   91:  135   11:   14
          12       1:  180   91:  135   15:   18
          13       1:  180  136:  180    1:    5
          14       1:  180  136:  180    6:   10
          15       1:  180  136:  180   11:   14
          16       1:  180  136:  180   15:   18

InitMesh: MESH =   360 x   360 x    36 =     4665600
InitMesh: (bp) =   180 x   180 x    18 =      583200
InitMesh: Mesh cutoff (required, used) =   199.998   200.182 Ry
ExtMesh (bp) on 0 =   240 x   105 x    65 =     1638000
New grid distribution:   2
           1      24:  173    9:   23    1:   18
           2       8:   23   10:   23    1:   18
           3      11:   23    1:    9    1:   18
           4       1:   10    1:    9    1:   18
           5      24:  173   24:  172    1:   18
           6       1:    7   24:  172    1:   18
           7     174:  180    9:   23    1:   18
           8       1:   10  173:  180    1:   18
           9       8:   23   24:  172    1:   18
          10     174:  180   24:  172    1:   18
          11       1:    7   10:   23    1:   18
          12     171:  180    1:    8    1:   18
          13      24:  170    1:    8    1:   18
          14      24:  170  173:  180    1:   18
          15      11:   23  173:  180    1:   18
          16     171:  180  173:  180    1:   18
New grid distribution:   3
           1      37:  170   13:   58    1:   18
           2      11:   36   13:   58    1:   18
           3       1:   10   13:   58    1:   18
           4     167:  180    1:   12    1:   18
           5      37:  166    1:   12    1:   18
           6       1:   10   59:  168    1:   18
           7     171:  180   13:   58    1:   18
           8       1:   14    1:   12    1:   18
           9      68:  169   59:  168    1:   18
          10     170:  180   59:  168    1:   18
          11      15:   36    1:   12    1:   18
          12       1:   14  169:  180    1:   18
          13      11:   67   59:  168    1:   18
          14      68:  166  169:  180    1:   18
          15      15:   67  169:  180    1:   18
          16     167:  180  169:  180    1:   18
Setting up quadratic distribution...
ExtMesh (bp) on 0 =   210 x    75 x    78 =     1228500
PhiOnMesh: Number of (b)points on node 0 =                40500
PhiOnMesh: nlist on node 0 =               346629

        iscf     Eharris(eV)        E_KS(eV)     FreeEng(eV)     dDmax    Ef(eV) dHmax(eV)
   scf:    1    -4963.800027    -4965.061421    -4965.061421  0.004632 -4.830883  0.076490
     spin moment: S , {S} =   -0.00000       0.0       0.0  -0.00000
   scf:    2    -4965.060690    -4965.061578    -4965.061578  0.001316 -4.786806  0.081401
     spin moment: S , {S} =   -0.00000       0.0       0.0  -0.00000
   scf:    3    -4965.062264    -4965.062094    -4965.062095  0.000566 -4.806599  0.006263
     spin moment: S , {S} =    0.00000       0.0       0.0   0.00000
   scf:    4    -4965.062112    -4965.062104    -4965.062104  0.000081 -4.804827  0.001239
     spin moment: S , {S} =   -0.00000       0.0       0.0  -0.00000
   scf:    5    -4965.062105    -4965.062105    -4965.062105  0.000012 -4.804779  0.000651
     spin moment: S , {S} =    0.00000       0.0       0.0   0.00000

SCF Convergence by DM+H criterion
max |DM_out - DM_in|         :     0.0000120839
max |H_out - H_in|      (eV) :     0.0006507909
SCF cycle converged after 5 iterations

Using DM_out to compute the final energy and forces
No. of atoms with KB's overlaping orbs in proc 0. Max # of overlaps:      53     271

siesta: E_KS(eV) =            -4965.0621
     spin moment: S , {S} =    0.00000       0.0       0.0   0.00000

siesta: Atomic forces (eV/Ang):
----------------------------------------
   Tot    0.000001   -0.000001   -0.001093
----------------------------------------
   Max    0.074609
   Res    0.025354    sqrt( Sum f_i^2 / 3N )
----------------------------------------
   Max    0.074609    constrained

Stress tensor Voigt[x,y,z,yz,xz,xy] (kbar):        0.01        0.01       -3.58        0.00        0.00       -0.00
(Free)E + p*V (eV/cell)    -4960.0379
Target enthalpy (eV/cell)    -4965.0621

cgvc: Finished line minimization    2.  Mean atomic displacement =    0.0388

                     ====================================
                        Begin CG opt. move =      6
                     ====================================

superc: Internal auxiliary supercell:     1 x     1 x     5  =       5
superc: Number of atoms, orbitals, and projectors:    160   2080   2560

outcell: Unit cell vectors (Ang):
       40.000000    0.000000    0.000000
        0.000000   40.000000    0.000000
        0.000000    0.000000    4.230000

outcell: Cell vector modules (Ang)   :   40.000000   40.000000    4.230000
outcell: Cell angles (23,13,12) (deg):     90.0000     90.0000     90.0000
outcell: Cell volume (Ang**3)        :   6768.0000
<dSpData1D:S at geom step 6
  <sparsity:sparsity for geom step 6
    nrows_g=416 nrows=48 sparsity=.2596 nnzs=44930, refcount: 7>
  <dData1D:(new from dSpData1D) n=44930, refcount: 1>
refcount: 1>
new_DM -- step:     7
Re-using DM from previous geometries...
Number of DMs in history: 1
 DM extrapolation coefficients: 
1   1.00000
New DM after history re-use:
<dSpData2D:SpM extrapolated using coords
  <sparsity:sparsity for geom step 6
    nrows_g=416 nrows=48 sparsity=.2596 nnzs=44930, refcount: 9>
  <dData2D:(temp array for extrapolation) n=44930 m=2, refcount: 1>
refcount: 1>
     spin moment: S , {S} =   -0.00000       0.0       0.0  -0.00000
No. of atoms with KB's overlaping orbs in proc 0. Max # of overlaps:      53     271
New grid distribution:   1
           1       1:  180    1:   45    1:    5
           2       1:  180    1:   45    6:   10
           3       1:  180    1:   45   11:   14
           4       1:  180    1:   45   15:   18
           5       1:  180   46:   90    1:    5
           6       1:  180   46:   90    6:   10
           7       1:  180   46:   90   11:   14
           8       1:  180   46:   90   15:   18
           9       1:  180   91:  135    1:    5
          10       1:  180   91:  135    6:   10
          11       1:  180   91:  135   11:   14
          12       1:  180   91:  135   15:   18
          13       1:  180  136:  180    1:    5
          14       1:  180  136:  180    6:   10
          15       1:  180  136:  180   11:   14
          16       1:  180  136:  180   15:   18

InitMesh: MESH =   360 x   360 x    36 =     4665600
InitMesh: (bp) =   180 x   180 x    18 =      583200
InitMesh: Mesh cutoff (required, used) =   199.998   200.182 Ry
ExtMesh (bp) on 0 =   240 x   105 x    65 =     1638000
New grid distribution:   2
           1      24:  173    9:   23    1:   18
           2       8:   23   10:   23    1:   18
           3      11:   23    1:    9    1:   18
           4       1:   10    1:    9    1:   18
           5      24:  173   24:  172    1:   18
           6       1:    7   24:  172    1:   18
           7     174:  180    9:   23    1:   18
           8       1:   10  173:  180    1:   18
           9       8:   23   24:  172    1:   18
          10     174:  180   24:  172    1:   18
          11       1:    7   10:   23    1:   18
          12     171:  180    1:    8    1:   18
          13      24:  170    1:    8    1:   18
          14      24:  170  173:  180    1:   18
          15      11:   23  173:  180    1:   18
          16     171:  180  173:  180    1:   18
New grid distribution:   3
           1      38:  170   13:   59    1:   18
           2      11:   37   13:   59    1:   18
           3       1:   10   13:   59    1:   18
           4     167:  180    1:   12    1:   18
           5      38:  166    1:   12    1:   18
           6       1:   10   60:  168    1:   18
           7     171:  180   13:   59    1:   18
           8       1:   14    1:   12    1:   18
           9      68:  169   60:  168    1:   18
          10     170:  180   60:  168    1:   18
          11      15:   37    1:   12    1:   18
          12       1:   14  169:  180    1:   18
          13      11:   67   60:  168    1:   18
          14      68:  166  169:  180    1:   18
          15      15:   67  169:  180    1:   18
          16     167:  180  169:  180    1:   18
Setting up quadratic distribution...
ExtMesh (bp) on 0 =   210 x    75 x    78 =     1228500
PhiOnMesh: Number of (b)points on node 0 =                40500
PhiOnMesh: nlist on node 0 =               346586

        iscf     Eharris(eV)        E_KS(eV)     FreeEng(eV)     dDmax    Ef(eV) dHmax(eV)
   scf:    1    -4964.053447    -4964.433017    -4964.433017  0.014911 -4.785397  0.947741
     spin moment: S , {S} =   -0.00000       0.0       0.0  -0.00000
   scf:    2    -4959.731989    -4963.160505    -4963.160505  0.014143 -4.799701  2.301003
     spin moment: S , {S} =    0.00000       0.0       0.0   0.00000
   scf:    3    -4965.128877    -4964.691511    -4964.691512  0.010128 -4.792927  0.015214
     spin moment: S , {S} =    0.00000       0.0       0.0   0.00000
   scf:    4    -4964.692125    -4964.691861    -4964.691861  0.000180 -4.793776  0.007806
     spin moment: S , {S} =    0.00000       0.0       0.0   0.00000
   scf:    5    -4964.691939    -4964.691905    -4964.691905  0.000084 -4.794450  0.004454
     spin moment: S , {S} =   -0.00000       0.0       0.0  -0.00000
   scf:    6    -4964.691916    -4964.691911    -4964.691911  0.000035 -4.794707  0.001481
     spin moment: S , {S} =   -0.00000       0.0       0.0  -0.00000
   scf:    7    -4964.691914    -4964.691913    -4964.691913  0.000023 -4.794826  0.000454
     spin moment: S , {S} =    0.00000       0.0       0.0   0.00000

SCF Convergence by DM+H criterion
max |DM_out - DM_in|         :     0.0000230633
max |H_out - H_in|      (eV) :     0.0004544131
SCF cycle converged after 7 iterations

Using DM_out to compute the final energy and forces
No. of atoms with KB's overlaping orbs in proc 0. Max # of overlaps:      53     271

siesta: E_KS(eV) =            -4964.6919
     spin moment: S , {S} =    0.00000       0.0       0.0   0.00000

siesta: Atomic forces (eV/Ang):
----------------------------------------
   Tot   -0.000659   -0.000589    0.004706
----------------------------------------
   Max    2.026729
   Res    0.726424    sqrt( Sum f_i^2 / 3N )
----------------------------------------
   Max    2.026729    constrained

Stress tensor Voigt[x,y,z,yz,xz,xy] (kbar):        0.16        0.16       -3.43       -0.00       -0.00        0.00
(Free)E + p*V (eV/cell)    -4960.3092
Target enthalpy (eV/cell)    -4964.6919

                     ====================================
                        Begin CG opt. move =      7
                     ====================================

superc: Internal auxiliary supercell:     1 x     1 x     5  =       5
superc: Number of atoms, orbitals, and projectors:    160   2080   2560

outcell: Unit cell vectors (Ang):
       40.000000    0.000000    0.000000
        0.000000   40.000000    0.000000
        0.000000    0.000000    4.230000

outcell: Cell vector modules (Ang)   :   40.000000   40.000000    4.230000
outcell: Cell angles (23,13,12) (deg):     90.0000     90.0000     90.0000
outcell: Cell volume (Ang**3)        :   6768.0000
<dSpData1D:S at geom step 7
  <sparsity:sparsity for geom step 7
    nrows_g=416 nrows=48 sparsity=.2615 nnzs=45258, refcount: 7>
  <dData1D:(new from dSpData1D) n=45258, refcount: 1>
refcount: 1>
new_DM -- step:     8
Re-using DM from previous geometries...
Number of DMs in history: 1
 DM extrapolation coefficients: 
1   1.00000
New DM after history re-use:
<dSpData2D:SpM extrapolated using coords
  <sparsity:sparsity for geom step 7
    nrows_g=416 nrows=48 sparsity=.2615 nnzs=45258, refcount: 9>
  <dData2D:(temp array for extrapolation) n=45258 m=2, refcount: 1>
refcount: 1>
     spin moment: S , {S} =   -0.00000       0.0       0.0  -0.00000
No. of atoms with KB's overlaping orbs in proc 0. Max # of overlaps:      53     271
New grid distribution:   1
           1       1:  180    1:   45    1:    5
           2       1:  180    1:   45    6:   10
           3       1:  180    1:   45   11:   14
           4       1:  180    1:   45   15:   18
           5       1:  180   46:   90    1:    5
           6       1:  180   46:   90    6:   10
           7       1:  180   46:   90   11:   14
           8       1:  180   46:   90   15:   18
           9       1:  180   91:  135    1:    5
          10       1:  180   91:  135    6:   10
          11       1:  180   91:  135   11:   14
          12       1:  180   91:  135   15:   18
          13       1:  180  136:  180    1:    5
          14       1:  180  136:  180    6:   10
          15       1:  180  136:  180   11:   14
          16       1:  180  136:  180   15:   18

InitMesh: MESH =   360 x   360 x    36 =     4665600
InitMesh: (bp) =   180 x   180 x    18 =      583200
InitMesh: Mesh cutoff (required, used) =   199.998   200.182 Ry
ExtMesh (bp) on 0 =   240 x   105 x    65 =     1638000
New grid distribution:   2
           1      24:  173    9:   23    1:   18
           2       8:   23   10:   23    1:   18
           3      11:   23    1:    9    1:   18
           4       1:   10    1:    9    1:   18
           5      24:  173   24:  172    1:   18
           6       1:    7   24:  172    1:   18
           7     174:  180    9:   23    1:   18
           8       1:   10  173:  180    1:   18
           9       8:   23   24:  172    1:   18
          10     174:  180   24:  172    1:   18
          11       1:    7   10:   23    1:   18
          12     171:  180    1:    8    1:   18
          13      24:  170    1:    8    1:   18
          14      24:  170  173:  180    1:   18
          15      11:   23  173:  180    1:   18
          16     171:  180  173:  180    1:   18
New grid distribution:   3
           1      37:  170   13:   58    1:   18
           2      11:   36   13:   58    1:   18
           3       1:   10   13:   58    1:   18
           4     167:  180    1:   12    1:   18
           5      37:  166    1:   12    1:   18
           6       1:   10   59:  168    1:   18
           7     171:  180   13:   58    1:   18
           8       1:   14    1:   12    1:   18
           9      68:  169   59:  168    1:   18
          10     170:  180   59:  168    1:   18
          11      15:   36    1:   12    1:   18
          12       1:   14  169:  180    1:   18
          13      11:   67   59:  168    1:   18
          14      68:  166  169:  180    1:   18
          15      15:   67  169:  180    1:   18
          16     167:  180  169:  180    1:   18
Setting up quadratic distribution...
ExtMesh (bp) on 0 =   210 x    75 x    78 =     1228500
PhiOnMesh: Number of (b)points on node 0 =                40500
PhiOnMesh: nlist on node 0 =               346696

        iscf     Eharris(eV)        E_KS(eV)     FreeEng(eV)     dDmax    Ef(eV) dHmax(eV)
   scf:    1    -4964.102842    -4964.824775    -4964.824775  0.014433 -4.814831  0.910312
     spin moment: S , {S} =    0.00000       0.0       0.0   0.00000
   scf:    2    -4960.426467    -4963.630127    -4963.630127  0.013560 -4.793140  2.232917
     spin moment: S , {S} =   -0.00000       0.0       0.0  -0.00000
   scf:    3    -4965.468236    -4965.062229    -4965.062229  0.009505 -4.806461  0.017044
     spin moment: S , {S} =    0.00000       0.0       0.0   0.00000
   scf:    4    -4965.062823    -4965.062571    -4965.062571  0.000172 -4.805038  0.006922
     spin moment: S , {S} =    0.00000       0.0       0.0   0.00000
   scf:    5    -4965.062629    -4965.062603    -4965.062603  0.000065 -4.804910  0.003753
     spin moment: S , {S} =   -0.00000       0.0       0.0  -0.00000
   scf:    6    -4965.062617    -4965.062610    -4965.062611  0.000036 -4.804846  0.001287
     spin moment: S , {S} =    0.00000       0.0       0.0   0.00000
   scf:    7    -4965.062615    -4965.062613    -4965.062613  0.000028 -4.804829  0.000462
     spin moment: S , {S} =   -0.00000       0.0       0.0  -0.00000

SCF Convergence by DM+H criterion
max |DM_out - DM_in|         :     0.0000276111
max |H_out - H_in|      (eV) :     0.0004622407
SCF cycle converged after 7 iterations

Using DM_out to compute the final energy and forces
No. of atoms with KB's overlaping orbs in proc 0. Max # of overlaps:      53     271

siesta: E_KS(eV) =            -4965.0626
     spin moment: S , {S} =   -0.00000       0.0       0.0  -0.00000

siesta: Atomic forces (eV/Ang):
----------------------------------------
   Tot   -0.000001    0.000000    0.000363
----------------------------------------
   Max    0.016381
   Res    0.007398    sqrt( Sum f_i^2 / 3N )
----------------------------------------
   Max    0.016381    constrained

Stress tensor Voigt[x,y,z,yz,xz,xy] (kbar):        0.02        0.02       -3.57        0.00       -0.00       -0.00
(Free)E + p*V (eV/cell)    -4960.0873
Target enthalpy (eV/cell)    -4965.0626

outcoor: Relaxed atomic coordinates (Ang):                  
   -2.02348787    2.46563392   -1.41079737   1       1  C
   -0.92596015    3.05250578   -0.70437339   1       2  C
   -2.81305324    1.50397148   -0.70454663   1       3  C
   -2.81312811    1.50392613    0.70444317   1       4  C
   -2.02354051    2.46566083    1.41087711   1       5  C
   -0.92595475    3.05252779    0.70438957   1       6  C
   -2.46563339   -2.02348853   -1.41079786   1       7  C
   -3.05250574   -0.92596048   -0.70437339   1       8  C
   -3.17457833    0.31274289   -1.41070733   1       9  C
   -3.17451044    0.31265118    1.41054090   1      10  C
   -1.50397118   -2.81305322   -0.70454651   1      11  C
   -1.50392588   -2.81312804    0.70444303   1      12  C
   -2.46566062   -2.02354057    1.41087693   1      13  C
   -3.05252760   -0.92595522    0.70438880   1      14  C
    2.02348831   -2.46563330   -1.41079790   1      15  C
    0.92596036   -3.05250551   -0.70437333   1      16  C
   -0.31274278   -3.17457808   -1.41070741   1      17  C
   -0.31265104   -3.17451021    1.41054098   1      18  C
    2.81305297   -1.50397133   -0.70454655   1      19  C
    2.81312779   -1.50392593    0.70444306   1      20  C
    2.02354033   -2.46566053    1.41087699   1      21  C
    0.92595509   -3.05252739    0.70438875   1      22  C
    2.46563383    2.02348763   -1.41079742   1      23  C
    3.05250555    0.92596005   -0.70437335   1      24  C
    3.17457798   -0.31274329   -1.41070721   1      25  C
    3.17451008   -0.31265128    1.41054114   1      26  C
    1.50397162    2.81305299   -0.70454669   1      27  C
    1.50392618    2.81312787    0.70444318   1      28  C
    2.46566074    2.02354028    1.41087714   1      29  C
    3.05252759    0.92595464    0.70438953   1      30  C
    0.31274340    3.17457824   -1.41070715   1      31  C
    0.31265141    3.17451033    1.41054106   1      32  C

coxmol: Writing XMOL coordinates into file siesta.xyz                                                          
Writing WFSX for COOP/COHP in siesta.fullBZ.WFSX
Computing bands...

siesta: Band energies (eV):
  ik is       eps
   1  1  -24.2030  -23.8935  -23.8935  -22.9913  -22.9893  -21.5640  -21.5640  -19.7217  -19.7198  -18.8306
         -18.5571  -18.5571  -18.0315  -17.7812  -17.7812  -17.7621  -17.7597  -17.7185  -17.7185  -17.1728
  -17.1699  -16.5028  -16.5028  -15.0766  -15.0766  -14.8567  -14.8543  -14.4851  -14.4843  -13.6787
  -13.6777  -12.8993  -12.8993  -12.5344  -12.4615  -12.4615  -12.1551  -12.1551  -11.9522  -11.9522
  -11.4327  -11.2596  -11.2583  -10.7693  -10.7684   -9.6012   -9.5992   -9.0408   -9.0408   -8.7865
   -8.7865   -8.3955   -8.3955   -7.8599   -7.8424   -7.0827   -7.0805   -6.9378   -6.5564   -6.5564
   -5.4707   -5.4696   -5.1373   -5.1373   -4.4987   -4.1325   -4.1325   -4.0322   -4.0311   -3.7494
   -3.7494   -1.5242   -1.5212    0.8906    0.8906    1.8098    2.3047    2.5619    2.6529    2.6529
    2.7875    2.7909    2.9014    3.0328    3.0328    3.4026    3.4026    3.6544    3.6544    3.9782
    3.9802    5.2096    5.2109    5.4402    5.4402    5.8219    5.8219    5.8819    5.8992    5.9021
    6.2076    6.2076    6.6245    6.6245    6.6262    6.6301    6.6615    6.6629    6.7688    7.2409
    7.2445    7.3545    7.3545    7.9565    7.9565    8.2060    8.2061    8.7742    8.7742    8.8173
    8.8242    9.2531    9.2531    9.5291    9.5431    9.5431    9.6056    9.6061    9.9979    9.9979
   10.0668   10.0693   10.4431   10.7112   10.7126   10.9753   10.9753   11.0740   11.0740   11.1075
   11.1174   11.1208   11.1710   11.1710   11.2812   12.2320   12.2320   12.3014   12.3047   12.4466
   12.4466   12.6392   12.7942   12.7952   13.0490   13.0490   13.0648   13.1533   13.1533   13.8671
   13.8671   14.5209   14.5242   14.6597   14.6602   14.8641   14.8641   14.9243   15.0708   15.0708
   15.2153   15.2153   15.3775   15.3793   15.7787   15.7824   16.2071   16.5191   16.5234   16.9000
   16.9000   17.2788   17.2788   17.6487   17.7671   17.7686   18.1308   18.1325   18.7292   18.7292
   18.9407   18.9407   19.1856   19.3985   19.3985   19.6546   19.6597   19.8536   19.8536   22.2915
   23.5567   23.5589   23.8563   23.8563   24.2891   24.2891   24.6467   24.6495   25.0810   25.0826
   25.1204   25.1204   25.1639   25.1639   28.0305   28.0305   28.2590   28.2642   29.4354   30.5159
   30.6841   31.0978   31.1418   31.1447   32.0671   32.0717   32.8801   32.8801   33.2792   33.2792
   33.3699   33.3699   34.1476   34.1476   34.1818   34.1818   34.2751   34.2796   35.1376   35.1426
   35.2364   37.5327   37.8528   37.8528   38.1281   38.1281   38.4754   38.4816   39.0787   39.0787
   39.4138   39.4163   40.5067   40.5067   40.8141   40.8197   40.8604   40.8604   40.9703   40.9747
   43.3656   43.3713   43.4727   43.9939   43.9939   45.1599   45.1599   46.1931   46.1931   46.2369
   46.2369   46.2776   46.2776   46.5564   46.9885   46.9897   47.2893   47.2959   47.4217   47.5237
   47.9030   48.2629   48.2640   48.3026   48.3042   48.8288   48.8288   48.9947   48.9996   49.0931
   49.0931   49.3774   49.4578   49.4578   50.7622   52.1630   52.1723   52.5365   52.5365   53.6815
   53.6815   53.9569   53.9569   55.3886   55.3901   57.1552   57.1663   57.8179   57.8179   58.4473
   58.4473   58.7603   58.7670   58.8999   60.3204   60.3204   61.0766   61.0767   61.3476   61.3476
   61.6375   61.6431   61.7724   61.7791   62.5219   62.5219   63.3227   64.0399   64.0451   64.5628
   65.6045   65.6197   65.6197   66.1121   66.4044   66.4045   67.2457   67.2457   68.0354   69.0026
   69.0079   69.7551   71.3311   71.3508   72.0187   72.0187   72.5893   72.5893   73.0669   73.0669
   73.0924   74.4659   74.4835   75.5277   75.5348   75.8433   75.8433   76.4885   76.4952   77.3302
   77.3302   77.7143   77.7143   81.9735   81.9735   83.9803   83.9842   94.3006   95.4255   95.4255
   96.7948   96.7948   99.0039   99.0085  101.2448  101.2449  102.8158  104.3754  104.3801  104.6248
  104.6407  108.7555  108.7555  113.1165  113.1343  113.7248  113.9040  113.9135  115.3884  115.3885
  119.6348  119.6349  129.6956  129.8359  129.8427  133.5742  133.5742  136.3049  136.3050  136.4475
  136.4479  136.4811  136.4812  138.5601  138.5825  139.1472  139.7975  139.8044  142.3733  142.3971
  146.0840  146.0841  146.1227  146.1241  149.6199  149.6200
   2  1  -24.2029  -23.8933  -23.8933  -22.9911  -22.9891  -21.5639  -21.5639  -19.7215  -19.7196  -18.8343
         -18.5608  -18.5608  -18.0276  -17.7773  -17.7773  -17.7662  -17.7638  -17.7186  -17.7186  -17.1687
  -17.1658  -16.5041  -16.5041  -15.0749  -15.0749  -14.8585  -14.8560  -14.4848  -14.4840  -13.6770
  -13.6759  -12.9008  -12.9008  -12.5342  -12.4614  -12.4614  -12.1549  -12.1549  -11.9508  -11.9508
  -11.4326  -11.2599  -11.2586  -10.7696  -10.7687   -9.6009   -9.5989   -9.0406   -9.0406   -8.7872
   -8.7872   -8.3955   -8.3955   -7.8604   -7.8427   -7.0826   -7.0804   -6.9391   -6.5577   -6.5577
   -5.4725   -5.4713   -5.1380   -5.1380   -4.4974   -4.1312   -4.1312   -4.0305   -4.0294   -3.7489
   -3.7489   -1.5246   -1.5215    0.8902    0.8902    1.8093    2.3051    2.5621    2.6523    2.6524
    2.7870    2.7905    2.9021    3.0331    3.0331    3.4030    3.4030    3.6546    3.6546    3.9774
    3.9795    5.2096    5.2109    5.4384    5.4384    5.8226    5.8226    5.8823    5.8996    5.9025
    6.2077    6.2077    6.6249    6.6250    6.6276    6.6315    6.6616    6.6630    6.7690    7.2385
    7.2420    7.3547    7.3547    7.9587    7.9587    8.2061    8.2062    8.7723    8.7723    8.8194
    8.8263    9.2531    9.2531    9.5266    9.5433    9.5433    9.6057    9.6063    9.9968    9.9968
   10.0658   10.0683   10.4450   10.7102   10.7116   10.9751   10.9751   11.0739   11.0739   11.1076
   11.1173   11.1208   11.1707   11.1707   11.2808   12.2331   12.2331   12.3020   12.3053   12.4469
   12.4469   12.6309   12.7941   12.7951   13.0462   13.0462   13.0735   13.1530   13.1530   13.8703
   13.8704   14.5195   14.5228   14.6608   14.6613   14.8651   14.8652   14.9233   15.0707   15.0707
   15.2146   15.2146   15.3795   15.3813   15.7782   15.7820   16.2072   16.5189   16.5232   16.9009
   16.9009   17.2782   17.2782   17.6492   17.7673   17.7687   18.1318   18.1335   18.7289   18.7289
   18.9410   18.9410   19.1856   19.3984   19.3984   19.6544   19.6595   19.8529   19.8529   22.2868
   23.5577   23.5599   23.8554   23.8554   24.2894   24.2894   24.6470   24.6498   25.0814   25.0830
   25.1233   25.1233   25.1651   25.1652   28.0311   28.0311   28.2596   28.2647   29.4300   30.5157
   30.6838   31.1045   31.1401   31.1430   32.0678   32.0724   32.8803   32.8803   33.2782   33.2782
   33.3711   33.3711   34.1468   34.1468   34.1797   34.1797   34.2755   34.2801   35.1364   35.1414
   35.2370   37.5334   37.8528   37.8528   38.1285   38.1285   38.4717   38.4780   39.0747   39.0747
   39.4142   39.4167   40.5066   40.5066   40.8133   40.8189   40.8640   40.8640   40.9731   40.9775
   43.3634   43.3691   43.4736   43.9852   43.9852   45.1660   45.1660   46.1849   46.1850   46.2371
   46.2372   46.2868   46.2869   46.5620   46.9838   46.9848   47.2972   47.3036   47.4210   47.5237
   47.9016   48.2644   48.2655   48.3048   48.3065   48.8273   48.8273   48.9939   48.9988   49.0827
   49.0827   49.3788   49.4688   49.4688   50.7633   52.1612   52.1705   52.5319   52.5319   53.6851
   53.6851   53.9545   53.9545   55.3841   55.3857   57.1554   57.1664   57.8172   57.8172   58.4455
   58.4455   58.7593   58.7660   58.8963   60.3005   60.3005   61.0945   61.0945   61.3353   61.3353
   61.6378   61.6433   61.7747   61.7813   62.5224   62.5224   63.3285   64.0386   64.0438   64.5664
   65.6045   65.6208   65.6209   66.1095   66.3984   66.3984   67.2556   67.2556   68.0368   68.9994
   69.0047   69.7537   71.3280   71.3477   72.0080   72.0080   72.5963   72.5964   73.0655   73.0655
   73.0922   74.4605   74.4781   75.5273   75.5343   75.8430   75.8430   76.4893   76.4961   77.3306
   77.3306   77.7231   77.7231   81.9752   81.9752   83.9790   83.9829   94.2991   95.4253   95.4254
   96.7928   96.7928   98.9992   99.0038  101.2388  101.2389  102.8070  104.3722  104.3770  104.6225
  104.6384  108.7545  108.7546  113.1196  113.1374  113.7313  113.8950  113.9045  115.3848  115.3849
  119.6417  119.6418  129.6278  129.8421  129.8489  133.5214  133.5215  136.2972  136.2972  136.4446
  136.4451  136.4830  136.4831  138.5601  138.5825  139.1439  139.7939  139.8007  142.3410  142.3648
  146.0771  146.0772  146.1113  146.1127  149.6035  149.6036
   3  1  -24.2024  -23.8929  -23.8929  -22.9907  -22.9887  -21.5635  -21.5635  -19.7211  -19.7192  -18.8452
         -18.5716  -18.5716  -18.0161  -17.7781  -17.7758  -17.7659  -17.7659  -17.7190  -17.7190  -17.1566
  -17.1537  -16.5079  -16.5078  -15.0700  -15.0699  -14.8636  -14.8611  -14.4840  -14.4831  -13.6717
  -13.6707  -12.9054  -12.9054  -12.5337  -12.4609  -12.4609  -12.1545  -12.1545  -11.9467  -11.9467
[...]
   72.9520   72.9578   73.0334   73.0341   73.0751   73.0840   75.5093   75.5124   78.1298   78.1311
   81.4695   81.4745   81.8724   81.9165   81.9168   83.3700   84.3185   84.3189   95.6662   95.6673
   96.1601   96.1683   96.1829   96.1840   98.2842   98.2923   99.2153   99.2171  101.1286  101.1291
  108.1028  108.1031  108.2374  108.2381  110.0749  110.0756  115.3076  119.7915  127.6852  127.6947
  137.2887  140.4925  141.4885  141.4993  142.1902  142.1940  142.5663  142.5685  142.9092  142.9101
  142.9841  142.9852  143.2359  143.2368  144.2068  144.2080
  97  2  -22.8301  -22.6190  -22.5263  -22.5263  -22.3162  -22.3162  -21.6426  -21.6405  -21.4360  -21.4339
         -20.2519  -20.2519  -20.0536  -20.0536  -18.7522  -18.7500  -17.7207  -17.7189  -16.0877  -16.0876
  -15.8960  -15.8959  -13.8617  -13.8610  -13.6521  -13.6514  -12.6236  -12.6235  -12.5781  -12.2930
  -12.2929  -12.2174  -11.5409  -11.5391  -11.2886  -11.2884  -11.2341  -11.2323  -11.0956  -11.0954
  -11.0794  -11.0779  -10.9427  -10.9425  -10.7144  -10.7143  -10.4748  -10.3344  -10.1447  -10.1447
  -10.0953   -9.9717   -9.9717   -9.9055   -9.1805   -9.1788   -8.9758   -8.9742   -7.7471   -7.7470
   -7.5597   -7.5596   -6.6894   -6.6877   -2.6911   -2.6889   -1.6630   -1.6629   -1.4387   -1.4386
   -0.8397   -0.5693   -0.2450   -0.2450   -0.2039   -0.2017    0.0536    0.0536    0.0977    0.1001
    3.1891    3.1926    3.5217    3.5218    3.7376    3.7377    4.3199    4.5250    4.6338    4.6361
    5.0099    5.0122    5.2779    5.2779    5.4966    5.4967    5.7991    6.0083    6.1496    6.1498
    6.1898    6.1898    6.8983    6.8993    6.9133    6.9137    7.1542    7.1552    7.1812    7.1814
    7.8603    7.8857    7.8857    8.0851    8.0851    8.2403    8.2434    8.3791    8.3900    8.3931
    8.4512    8.5715    8.5951    8.5952    8.7189    8.7199    8.7450    8.7450    8.9236    8.9247
    9.5128    9.5128    9.7887    9.7887    9.8246    9.8255    9.9433    9.9440   10.2754   10.4488
   11.2749   11.2749   11.2997   11.2998   11.3650   11.3650   11.4080   11.4081   12.1175   12.1179
   12.1478   12.1482   13.4959   13.4985   13.6127   13.6128   13.6584   13.6585   13.6671   14.0191
   14.5517   14.5518   14.5815   14.5815   14.6072   14.6080   14.9383   14.9391   15.0092   15.0114
   15.5803   15.5803   15.9268   15.9268   16.9184   16.9229   17.5403   17.7671   19.7893   19.7899
   19.8890   19.8890   20.0223   20.0246   20.0733   20.0734   20.1789   20.1789   20.2987   20.2988
   20.5348   20.5369   21.0813   21.5673   21.9026   21.9026   22.0421   22.6163   22.6163   22.7393
   22.7415   22.7876   22.7876   22.9421   23.2931   23.2950   23.5249   23.5249   23.9978   23.9979
   24.3305   24.3307   25.5377   25.5380   27.4192   27.4284   28.3961   28.4826   29.3320   29.3339
   29.4160   29.4162   29.5131   29.5133   29.9625   29.9627   30.0332   30.0341   30.1963   30.1964
   30.6497   30.6533   31.2238   31.2238   31.3596   31.3596   31.4893   31.4961   31.5813   31.5875
   35.9639   35.9644   36.5719   36.5748   36.6877   36.6916   36.7004   36.7008   36.7277   36.8394
   38.4971   38.4971   38.5151   38.5164   38.6317   38.6318   38.9986   39.0029   42.8442   42.8446
   43.1327   43.1332   43.5471   43.7920   43.7942   43.9185   43.9210   43.9837   43.9839   44.0416
   44.6005   44.6006   45.3104   45.3105   45.4066   45.4067   45.8392   45.8609   45.8612   45.9268
   45.9272   46.1012   47.2553   47.2554   47.2899   47.2937   47.6284   47.6286   48.1612   48.1617
   48.2745   48.2751   48.7997   48.8021   49.7467   50.1355   51.4831   51.4834   52.0435   52.0492
   52.1447   52.1449   52.9613   52.9678   54.6057   54.6058   55.5166   55.5198   55.7513   55.7515
   56.0316   56.0341   56.5477   57.7244   57.7632   58.3882   58.3883   58.8997   58.9027   59.1003
   59.1004   59.2967   61.3017   61.3019   62.1079   62.1081   62.1438   62.1470   63.1044   63.1050
   63.2588   63.2594   63.4969   63.5033   64.0534   64.0588   66.0625   66.0656   66.1022   66.1113
   66.4268   66.4341   66.5355   66.5358   66.7896   66.7899   67.0977   67.0982   68.1870   68.5052
   68.7108   68.7114   70.1959   70.6681   71.3568   71.3570   71.6830   71.6831   72.0635   72.0640
   72.8478   72.8484   73.0626   73.0714   73.4025   73.4082   75.4579   75.4614   78.1614   78.1628
   80.7657   80.7698   82.0298   82.2068   82.2071   83.2029   84.0817   84.0820   95.7378   95.7389
   96.1418   96.1429   96.3434   96.3516   97.9925   98.0005   99.2074   99.2092  101.8738  101.8743
  107.3476  107.3480  108.4066  108.4074  109.8454  109.8461  115.8538  119.3583  127.6858  127.6954
  137.7473  140.2563  141.4979  141.5088  142.2494  142.2529  142.5428  142.5451  143.0235  143.0243
  143.0988  143.1000  143.2203  143.2212  144.1148  144.1160
  98  2  -22.8016  -22.6492  -22.4979  -22.4979  -22.3463  -22.3463  -21.6147  -21.6126  -21.4656  -21.4635
         -20.2251  -20.2251  -20.0819  -20.0819  -18.7483  -18.7461  -17.7262  -17.7244  -16.0618  -16.0617
  -15.9234  -15.9233  -13.8328  -13.8321  -13.6816  -13.6809  -12.5752  -12.5751  -12.5243  -12.3364
  -12.3363  -12.2633  -11.4966  -11.4948  -11.2750  -11.2732  -11.2594  -11.2592  -11.1200  -11.1199
  -11.0766  -11.0752  -10.9111  -10.9109  -10.7459  -10.7458  -10.4601  -10.3581  -10.1242  -10.1242
  -10.0694   -9.9988   -9.9988   -9.9324   -9.1536   -9.1519   -9.0058   -9.0041   -7.7217   -7.7216
   -7.5864   -7.5863   -6.6887   -6.6870   -2.6929   -2.6907   -1.6322   -1.6320   -1.4703   -1.4701
   -0.8016   -0.6065   -0.2030   -0.2030   -0.1617   -0.1595    0.0125    0.0125    0.0560    0.0583
    3.1850    3.1885    3.5482    3.5483    3.7041    3.7041    4.3512    4.5004    4.6839    4.6863
    4.9554    4.9577    5.3127    5.3127    5.4725    5.4725    5.8254    5.9776    6.1650    6.1652
    6.1896    6.1897    6.9333    6.9343    6.9363    6.9367    7.1181    7.1191    7.1321    7.1323
    7.9135    7.9136    7.9423    8.0576    8.0576    8.2623    8.2654    8.3688    8.3705    8.3735
    8.4052    8.5439    8.6159    8.6159    8.7241    8.7241    8.7476    8.7486    8.8958    8.8969
    9.5515    9.5515    9.7508    9.7508    9.8433    9.8442    9.9291    9.9299   10.2976   10.4230
   11.2909   11.2909   11.3147   11.3148   11.3562   11.3562   11.3929   11.3930   12.1214   12.1218
   12.1430   12.1434   13.4979   13.5005   13.6122   13.6123   13.6453   13.6454   13.7133   13.9673
   14.5578   14.5578   14.5794   14.5795   14.6500   14.6508   14.8895   14.8903   15.0078   15.0100
   15.6293   15.6293   15.8795   15.8796   16.9251   16.9297   17.5714   17.7353   19.7974   19.7979
   19.9343   19.9344   20.0988   20.1011   20.1128   20.1128   20.1435   20.1435   20.2762   20.2762
   20.4695   20.4717   21.1529   21.5032   21.9966   21.9966   22.1632   22.5118   22.5118   22.8137
   22.8138   22.8160   22.8877   22.8877   23.2135   23.2155   23.4201   23.4201   24.0443   24.0444
   24.2851   24.2852   25.5372   25.5375   27.4255   27.4348   28.3969   28.4584   29.4284   29.4302
   29.4397   29.4399   29.5135   29.5137   29.9357   29.9367   29.9881   29.9882   30.1560   30.1561
   30.6245   30.6282   31.2204   31.2205   31.3213   31.3214   31.5029   31.5096   31.5667   31.5733
   36.0580   36.0585   36.5799   36.5829   36.5900   36.5904   36.6643   36.6681   36.7434   36.8241
   38.5140   38.5141   38.5823   38.5837   38.6112   38.6113   38.9338   38.9380   42.8723   42.8727
   43.0816   43.0821   43.6191   43.8060   43.8082   43.8976   43.9000   43.9760   44.0720   44.0721
   44.5181   44.5183   45.3270   45.3271   45.3970   45.3971   45.8700   45.8704   45.8719   45.9188
   45.9193   46.0611   47.2935   47.2973   47.3041   47.3042   47.5754   47.5756   48.1832   48.1837
   48.2665   48.2671   48.7729   48.7753   49.8100   50.0903   51.5933   51.5936   52.0705   52.0708
   52.1525   52.1584   52.8181   52.8245   54.7780   54.7780   55.6119   55.6121   55.6155   55.6186
   55.9867   55.9893   56.7173   57.5946   57.9211   58.4993   58.4995   58.9185   58.9215   59.0201
   59.0202   59.0591   61.4168   61.4170   62.0069   62.0071   62.1190   62.1222   63.0937   63.0943
   63.2094   63.2100   63.6072   63.6133   63.9997   64.0051   65.9846   65.9877   66.1574   66.1663
   66.3934   66.4011   66.5631   66.5634   66.7455   66.7458   67.2252   67.2257   68.2182   68.3887
   68.3893   68.4453   70.2630   70.6042   71.4068   71.4069   71.6427   71.6428   72.1374   72.1379
   72.6898   72.6903   73.0532   73.0619   73.8499   73.8556   75.3654   75.3694   78.2462   78.2474
   80.1191   80.1222   82.1889   82.4890   82.4893   83.0364   83.8397   83.8401   95.8057   95.8068
   96.0971   96.0983   96.5359   96.5441   97.7192   97.7273   99.2015   99.2032  102.6272  102.6277
  106.5873  106.5877  108.5838  108.5846  109.6228  109.6235  116.3852  118.9125  127.6863  127.6959
  138.1799  139.9921  141.5050  141.5159  142.3040  142.3072  142.5152  142.5179  143.0598  143.0607
  143.2011  143.2021  143.2775  143.2787  144.0106  144.0118
  99  2  -22.7728  -22.6792  -22.4693  -22.4693  -22.3761  -22.3761  -21.5865  -21.5844  -21.4949  -21.4928
         -20.1980  -20.1980  -20.1100  -20.1100  -18.7456  -18.7434  -17.7299  -17.7281  -16.0357  -16.0356
  -15.9506  -15.9505  -13.8039  -13.8032  -13.7110  -13.7103  -12.5275  -12.5274  -12.4714  -12.3807
  -12.3806  -12.3108  -11.4528  -11.4510  -11.3166  -11.3148  -11.2309  -11.2308  -11.1453  -11.1451
  -11.0747  -11.0733  -10.8793  -10.8792  -10.7777  -10.7775  -10.4436  -10.3807  -10.1024  -10.1024
  -10.0433  -10.0251  -10.0251   -9.9592   -9.1261   -9.1244   -9.0353   -9.0336   -7.6960   -7.6960
   -7.6129   -7.6128   -6.6882   -6.6865   -2.6941   -2.6918   -1.6012   -1.6010   -1.5017   -1.5016
   -0.7637   -0.6438   -0.1611   -0.1611   -0.1196   -0.1174   -0.0288   -0.0288    0.0141    0.0165
    3.1822    3.1857    3.5758    3.5759    3.6716    3.6717    4.3819    4.4740    4.7348    4.7371
    4.9016    4.9040    5.3466    5.3466    5.4456    5.4456    5.8530    5.9471    6.1760    6.1762
    6.1893    6.1894    6.9646    6.9649    6.9685    6.9696    7.0821    7.0831    7.0860    7.0862
    7.9414    7.9414    8.0244    8.0299    8.0300    8.2840    8.2865    8.2870    8.3504    8.3536
    8.4314    8.5166    8.6367    8.6368    8.7032    8.7032    8.7760    8.7770    8.8680    8.8690
    9.5901    9.5901    9.7126    9.7126    9.8613    9.8622    9.9141    9.9149   10.3204   10.3977
   11.3058   11.3058   11.3296   11.3299   11.3461   11.3462   11.3779   11.3779   12.1253   12.1257
   12.1384   12.1389   13.4993   13.5019   13.6138   13.6139   13.6344   13.6345   13.7604   13.9165
   14.5633   14.5633   14.5767   14.5767   14.6940   14.6949   14.8415   14.8423   15.0068   15.0090
   15.6781   15.6781   15.8319   15.8319   16.9297   16.9342   17.6027   17.7034   19.8029   19.8034
   19.9781   19.9781   20.1066   20.1066   20.1499   20.1499   20.1739   20.1762   20.2506   20.2506
   20.4020   20.4042   21.2231   21.4380   22.0924   22.0924   22.2860   22.4089   22.4089   22.6860
   22.8892   22.8913   22.9887   22.9887   23.1347   23.1367   23.3158   23.3159   24.0910   24.0911
   24.2391   24.2392   25.5369   25.5372   27.4298   27.4392   28.4010   28.4385   29.4613   29.4615
   29.5084   29.5086   29.5254   29.5271   29.8375   29.8388   30.0157   30.0158   30.1185   30.1186
   30.6073   30.6110   31.2250   31.2250   31.2883   31.2884   31.5156   31.5219   31.5538   31.5609
   36.1549   36.1554   36.4819   36.4823   36.5908   36.5939   36.6430   36.6467   36.7591   36.8087
   38.5316   38.5316   38.5913   38.5913   38.6477   38.6491   38.8699   38.8743   42.9047   42.9052
   43.0338   43.0342   43.6901   43.8212   43.8234   43.8776   43.8800   43.9093   44.1598   44.1599
   44.4342   44.4344   45.3428   45.3429   45.3860   45.3861   45.8795   45.8798   45.9059   45.9100
   45.9104   46.0222   47.2959   47.2997   47.3547   47.3548   47.5221   47.5224   48.2035   48.2041
   48.2558   48.2562   48.7546   48.7569   49.8702   50.0423   51.6978   51.6981   51.9909   51.9911
   52.2685   52.2745   52.6787   52.6850   54.9484   54.9484   55.4637   55.4638   55.7056   55.7087
   55.9335   55.9362   56.8868   57.4258   58.1258   58.6091   58.6093   58.8263   58.9314   58.9320
   58.9321   58.9343   61.5337   61.5339   61.8999   61.9000   62.1020   62.1052   63.0947   63.0952
   63.1676   63.1682   63.7035   63.7094   63.9408   63.9464   65.9322   65.9353   66.2100   66.2187
   66.3557   66.3637   66.5929   66.5932   66.7046   66.7049   67.3820   67.3825   68.0961   68.0966
   68.2528   68.3913   70.3297   70.5396   71.4552   71.4553   71.6007   71.6009   72.2194   72.2199
   72.5534   72.5539   73.0468   73.0555   74.2723   74.2780   75.2176   75.2221   78.4018   78.4028
   79.5488   79.5510   82.3497   82.7636   82.7639   82.8707   83.5924   83.5927   95.8698   95.8709
   96.0488   96.0499   96.7384   96.7466   97.4626   97.4707   99.1974   99.1991  103.3867  103.3872
  105.8235  105.8239  108.7686  108.7694  109.4072  109.4079  116.9019  118.4537  127.6867  127.6962
  138.5861  139.7000  141.5098  141.5207  142.3540  142.3566  142.4835  142.4866  143.0931  143.0940
  143.1802  143.1811  143.4434  143.4446  143.8942  143.8954
 100  2  -22.7438  -22.7089  -22.4404  -22.4404  -22.4057  -22.4057  -21.5581  -21.5559  -21.5239  -21.5218
         -20.1707  -20.1707  -20.1379  -20.1379  -18.7442  -18.7420  -17.7319  -17.7301  -16.0093  -16.0092
  -15.9776  -15.9775  -13.7749  -13.7742  -13.7403  -13.7395  -12.4806  -12.4805  -12.4259  -12.4258
  -12.4196  -12.3598  -11.4095  -11.4077  -11.3587  -11.3570  -11.2032  -11.2031  -11.1713  -11.1712
  -11.0737  -11.0723  -10.8474  -10.8473  -10.8095  -10.8094  -10.4255  -10.4019  -10.0794  -10.0794
  -10.0505  -10.0505  -10.0171   -9.9857   -9.0982   -9.0965   -9.0643   -9.0627   -7.6702   -7.6701
   -7.6392   -7.6391   -6.6880   -6.6862   -2.6947   -2.6925   -1.5701   -1.5700   -1.5330   -1.5329
   -0.7259   -0.6813   -0.1194   -0.1194   -0.0775   -0.0753   -0.0701   -0.0701   -0.0278   -0.0254
    3.1807    3.1842    3.6046    3.6046    3.6404    3.6405    4.4119    4.4463    4.7863    4.7886
    4.8485    4.8509    5.3793    5.3794    5.4164    5.4165    5.8818    5.9169    6.1831    6.1833
    6.1879    6.1880    6.9979    6.9982    7.0040    7.0050    7.0433    7.0436    7.0462    7.0473
    7.9693    7.9693    8.0022    8.0022    8.1066    8.2041    8.3052    8.3082    8.3300    8.3332
    8.4579    8.4896    8.6576    8.6576    8.6823    8.6824    8.8034    8.8044    8.8410    8.8419
    9.6287    9.6287    9.6743    9.6743    9.8787    9.8795    9.8984    9.8992   10.3438   10.3731
   11.3195   11.3196   11.3347   11.3349   11.3449   11.3450   11.3628   11.3629   12.1293   12.1296
   12.1341   12.1347   13.5000   13.5026   13.6175   13.6175   13.6259   13.6260   13.8084   13.8665
   14.5682   14.5682   14.5732   14.5732   14.7390   14.7400   14.7944   14.7951   15.0063   15.0085
   15.7265   15.7265   15.7841   15.7841   16.9321   16.9366   17.6342   17.6717   19.8057   19.8062
   20.0202   20.0202   20.0680   20.0680   20.1845   20.1845   20.2220   20.2220   20.2474   20.2497
   20.3324   20.3346   21.2918   21.3718   22.1899   22.1899   22.3077   22.3077   22.4103   22.5592
   22.9654   22.9674   23.0568   23.0588   23.0905   23.0906   23.2123   23.2124   24.1376   24.1377
   24.1928   24.1929   25.5367   25.5371   27.4321   27.4415   28.4086   28.4227   29.4799   29.4801
   29.4986   29.4988   29.6230   29.6246   29.7393   29.7406   30.0453   30.0454   30.0837   30.0838
   30.5983   30.6020   31.2370   31.2370   31.2614   31.2614   31.5273   31.5328   31.5421   31.5501
   36.2546   36.2551   36.3763   36.3768   36.6042   36.6073   36.6241   36.6278   36.7747   36.7932
   38.5497   38.5498   38.5719   38.5720   38.7070   38.7081   38.8112   38.8165   42.9411   42.9416
   42.9893   42.9898   43.7600   43.8376   43.8398   43.8416   43.8587   43.8611   44.2469   44.2471
   44.3491   44.3493   45.3576   45.3577   45.3737   45.3738   45.8890   45.8894   45.9008   45.9011
   45.9410   45.9846   47.2972   47.3010   47.4065   47.4067   47.4690   47.4692   48.2215   48.2224
   48.2426   48.2431   48.7450   48.7473   49.9274   49.9915   51.7964   51.7967   51.9055   51.9057
   52.3909   52.3971   52.5439   52.5502   55.1156   55.1157   55.3080   55.3081   55.7868   55.7898
   55.8717   55.8745   57.0561   57.2568   58.3383   58.5992   58.7160   58.7161   58.8367   58.8368
   58.9382   58.9410   61.6509   61.6511   61.7879   61.7881   62.0930   62.0962   63.1066   63.1071
   63.1343   63.1349   63.7880   63.7935   63.8756   63.8816   65.9049   65.9080   66.2596   66.2680
   66.3140   66.3222   66.6251   66.6254   66.6667   66.6670   67.5701   67.5706   67.8356   67.8362
   68.2913   68.3428   70.3957   70.4748   71.5017   71.5019   71.5576   71.5577   72.3108   72.3113
   72.4344   72.4350   73.0434   73.0522   74.6462   74.6518   75.0011   75.0061   78.6471   78.6478
   79.0731   79.0745   82.5119   82.7060   83.0310   83.0313   83.3393   83.3396   95.9301   95.9312
   95.9968   95.9979   96.9518   96.9602   97.2212   97.2291   99.1953   99.1970  104.1502  104.1507
  105.0578  105.0582  108.9609  108.9616  109.1988  109.1996  117.4043  117.9817  127.6868  127.6964
  138.9655  139.3803  141.5124  141.5233  142.3993  142.4009  142.4476  142.4519  143.1233  143.1242
  143.1563  143.1572  143.5976  143.5988  143.7660  143.7672
siesta: PDOS info: 
siesta: e1, e2, sigma, nhist:   -24.00 eV   15.00 eV    0.10 eV   1000

siesta: Program's energy decomposition (eV):
siesta: Ebs     =     -1761.883989
siesta: Eions   =      8179.116033
siesta: Ena     =      1796.168447
siesta: Ekin    =      3495.670903
siesta: Enl     =      -428.960148
siesta: Eso     =         0.000000
siesta: Edftu   =         0.000000
siesta: DEna    =      -157.182131
siesta: DUscf   =        13.698348
siesta: DUext   =         0.000000
siesta: Exc     =     -1505.341998
siesta: eta*DQ  =         0.000000
siesta: Emadel  =         0.000000
siesta: Emeta   =         0.000000
siesta: Emolmec =         0.000000
siesta: Ekinion =         0.000000
siesta: Eharris =     -4965.062615
siesta: Etot    =     -4965.062613
siesta: FreeEng =     -4965.062613

siesta: Final energy (eV):
siesta:  Band Struct. =   -1761.883989
siesta:       Kinetic =    3495.670903
siesta:       Hartree =   64224.080592
siesta:       Edftu   =       0.000000
siesta:       Eso     =       0.000000
siesta:    Ext. field =       0.000000
siesta:   Exch.-corr. =   -1505.341998
siesta:  Ion-electron = -131737.609804
siesta:       Ion-ion =   60558.137695
siesta:       Ekinion =       0.000000
siesta:         Total =   -4965.062613
siesta:         Fermi =      -4.804829

siesta: Stress tensor (static) (eV/Ang**3):
siesta:     0.000012    0.000000   -0.000000
siesta:    -0.000000    0.000012    0.000000
siesta:    -0.000000    0.000000   -0.002229

siesta: Cell volume =       6768.000000 Ang**3

siesta: Pressure (static):
siesta:                Solid            Molecule  Units
siesta:           0.00000801          0.00000820  Ry/Bohr**3
siesta:           0.00073512          0.00075287  eV/Ang**3
siesta:           1.17780433          1.20623688  kBar
(Free)E+ p_basis*V_orbitals  =       -4947.222997
(Free)Eharris+ p_basis*V_orbitals  =       -4947.222999
     spin moment: S , {S} =   -0.00000       0.0       0.0  -0.00000

siesta: Electric dipole (a.u.)  =   -0.000017    0.000013    0.000000
siesta: Electric dipole (Debye) =   -0.000044    0.000034    0.000000

cite: Please see "siesta.bib" for an exhaustive BiBTeX file.
cite: Please clearly indicate Siesta version in published work: 4.1.5
cite: This calculation has made use of the following articles
cite: which are encouraged to be cited in a published work.
        Primary SIESTA paper
          DOI: www.doi.org/10.1088/0953-8984/14/11/302

>> End of run:  15-FEB-2022  18:17:56
Job completed
