
     Program PWSCF v.6.4.1 starts on 23Mar2023 at 22:34:12 

     This program is part of the open-source Quantum ESPRESSO suite
     for quantum simulation of materials; please cite
         "P. Giannozzi et al., J. Phys.:Condens. Matter 21 395502 (2009);
         "P. Giannozzi et al., J. Phys.:Condens. Matter 29 465901 (2017);
          URL http://www.quantum-espresso.org", 
     in publications or presentations arising from this work. More details at
     http://www.quantum-espresso.org/quote

     Parallel version (MPI & OpenMP), running on       4 processor cores
     Number of MPI processes:                 1
     Threads/MPI process:                     4

     MPI processes distributed on     1 nodes
     Waiting for input...
     Reading input from standard input

     Current dimensions of program PWSCF are:
     Max number of different atomic species (ntypx) = 10
     Max number of k-points (npk) =  40000
     Max angular momentum in pseudopotentials (lmaxx) =  3
               file Si.pbe-n-kjpaw_psl.1.0.0.UPF: wavefunction(s)  3S 3P renormalized

     Subspace diagonalization in iterative solution of the eigenvalue problem:
     a serial algorithm will be used


     G-vector sticks info
     --------------------
     sticks:   dense  smooth     PW     G-vecs:    dense   smooth      PW
     Sum         283     283    109                 3143     3143     701



     bravais-lattice index     =            2
     lattice parameter (alat)  =      10.2000  a.u.
     unit-cell volume          =     265.3020 (a.u.)^3
     number of atoms/cell      =            2
     number of atomic types    =            1
     number of electrons       =         8.00
     number of Kohn-Sham states=            4
     kinetic-energy cutoff     =      20.0000  Ry
     charge density cutoff     =      80.0000  Ry
     convergence threshold     =      1.0E-09
     mixing beta               =       0.3000
     number of iterations used =            8  plain     mixing
     Exchange-correlation      = SLA PW PBX PBC ( 1  4  3  4 0 0)
     nstep                     =           50


     celldm(1)=  10.200000  celldm(2)=   0.000000  celldm(3)=   0.000000
     celldm(4)=   0.000000  celldm(5)=   0.000000  celldm(6)=   0.000000

     crystal axes: (cart. coord. in units of alat)
               a(1) = (  -0.500000   0.000000   0.500000 )  
               a(2) = (   0.000000   0.500000   0.500000 )  
               a(3) = (  -0.500000   0.500000   0.000000 )  

     reciprocal axes: (cart. coord. in units 2 pi/alat)
               b(1) = ( -1.000000 -1.000000  1.000000 )  
               b(2) = (  1.000000  1.000000  1.000000 )  
               b(3) = ( -1.000000  1.000000 -1.000000 )  


     PseudoPot. # 1 for Si read from file:
     .\Si.pbe-n-kjpaw_psl.1.0.0.UPF
     MD5 check sum: c39c59da582df4a0d9f10159256ea34e
     Pseudo is Projector augmented-wave + core cor, Zval =  4.0
     Generated using "atomic" code by A. Dal Corso v.6.3
     Shape of augmentation charge: PSQ
     Using radial grid of 1141 points,  6 beta functions with: 
                l(1) =   0
                l(2) =   0
                l(3) =   1
                l(4) =   1
                l(5) =   2
                l(6) =   2
     Q(r) pseudized with 0 coefficients 


     atomic species   valence    mass     pseudopotential
        Si             4.00    28.08600     Si( 1.00)

     No symmetry found


                                    s                        frac. trans.

      isym =  1     identity                                     

 cryst.   s( 1) = (     1          0          0      )
                  (     0          1          0      )
                  (     0          0          1      )

 cart.    s( 1) = (  1.0000000  0.0000000  0.0000000 )
                  (  0.0000000  1.0000000  0.0000000 )
                  (  0.0000000  0.0000000  1.0000000 )


     point group C_1 (1)    
     there are  1 classes
     the character table:

       E    
A      1.00

     the symmetry operations in each class and the name of the first element:

     E        1
          identity                                               

   Cartesian axes

     site n.     atom                  positions (alat units)
         1           Si  tau(   1) = (   0.0000000   0.0000000   0.0000000  )
         2           Si  tau(   2) = (   0.2540000   0.2570000   0.2500000  )

   Crystallographic axes

     site n.     atom                  positions (cryst. coord.)
         1           Si  tau(   1) = (  0.0000000  0.0000000  0.0000000  )
         2           Si  tau(   2) = ( -0.2610000  0.7610000 -0.2470000  )

     number of k points=  1024
                       cart. coord. in units 2pi/alat
        k(    1) = (  -0.0625000   0.0625000   0.0625000), wk =   0.0019531
        k(    2) = (  -0.1875000   0.1875000  -0.0625000), wk =   0.0019531
        k(    3) = (  -0.3125000   0.3125000  -0.1875000), wk =   0.0019531
        k(    4) = (  -0.4375000   0.4375000  -0.3125000), wk =   0.0019531
        k(    5) = (   0.4375000  -0.4375000   0.5625000), wk =   0.0019531
        k(    6) = (   0.3125000  -0.3125000   0.4375000), wk =   0.0019531
        k(    7) = (   0.1875000  -0.1875000   0.3125000), wk =   0.0019531
        k(    8) = (   0.0625000  -0.0625000   0.1875000), wk =   0.0019531
        k(    9) = (  -0.0625000   0.3125000   0.0625000), wk =   0.0019531
        k(   10) = (  -0.1875000   0.4375000  -0.0625000), wk =   0.0019531
        k(   11) = (  -0.3125000   0.5625000  -0.1875000), wk =   0.0019531
        k(   12) = (   0.5625000  -0.3125000   0.6875000), wk =   0.0019531
        k(   13) = (   0.4375000  -0.1875000   0.5625000), wk =   0.0019531
        k(   14) = (   0.3125000  -0.0625000   0.4375000), wk =   0.0019531
        k(   15) = (   0.1875000   0.0625000   0.3125000), wk =   0.0019531
        k(   16) = (  -0.0625000   0.5625000   0.0625000), wk =   0.0019531
        k(   17) = (  -0.1875000   0.6875000  -0.0625000), wk =   0.0019531
        k(   18) = (   0.6875000  -0.1875000   0.8125000), wk =   0.0019531
        k(   19) = (   0.5625000  -0.0625000   0.6875000), wk =   0.0019531
        k(   20) = (   0.4375000   0.0625000   0.5625000), wk =   0.0019531
        k(   21) = (   0.3125000   0.1875000   0.4375000), wk =   0.0019531
        k(   22) = (  -0.0625000   0.8125000   0.0625000), wk =   0.0019531
        k(   23) = (   0.8125000  -0.0625000   0.9375000), wk =   0.0019531
        k(   24) = (   0.6875000   0.0625000   0.8125000), wk =   0.0019531
        k(   25) = (   0.5625000   0.1875000   0.6875000), wk =   0.0019531
        k(   26) = (   0.4375000   0.3125000   0.5625000), wk =   0.0019531
        k(   27) = (  -0.0625000  -0.9375000   0.0625000), wk =   0.0019531
        k(   28) = (  -0.1875000  -0.8125000  -0.0625000), wk =   0.0019531
        k(   29) = (  -0.3125000  -0.6875000  -0.1875000), wk =   0.0019531
        k(   30) = (  -0.0625000  -0.6875000   0.0625000), wk =   0.0019531
        k(   31) = (  -0.1875000  -0.5625000  -0.0625000), wk =   0.0019531
        k(   32) = (  -0.0625000  -0.4375000   0.0625000), wk =   0.0019531
        k(   33) = (  -0.1875000   0.1875000   0.1875000), wk =   0.0019531
        k(   34) = (  -0.3125000   0.3125000   0.0625000), wk =   0.0019531
        k(   35) = (  -0.4375000   0.4375000  -0.0625000), wk =   0.0019531
        k(   36) = (   0.4375000  -0.4375000   0.8125000), wk =   0.0019531
        k(   37) = (   0.3125000  -0.3125000   0.6875000), wk =   0.0019531
        k(   38) = (   0.1875000  -0.1875000   0.5625000), wk =   0.0019531
        k(   39) = (  -0.1875000   0.4375000   0.1875000), wk =   0.0019531
        k(   40) = (  -0.3125000   0.5625000   0.0625000), wk =   0.0019531
        k(   41) = (   0.5625000  -0.3125000   0.9375000), wk =   0.0019531
        k(   42) = (   0.4375000  -0.1875000   0.8125000), wk =   0.0019531
        k(   43) = (   0.3125000  -0.0625000   0.6875000), wk =   0.0019531
        k(   44) = (  -0.1875000   0.6875000   0.1875000), wk =   0.0019531
        k(   45) = (   0.6875000  -0.1875000   1.0625000), wk =   0.0019531
        k(   46) = (   0.5625000  -0.0625000   0.9375000), wk =   0.0019531
        k(   47) = (   0.4375000   0.0625000   0.8125000), wk =   0.0019531
        k(   48) = (  -0.1875000  -1.0625000   0.1875000), wk =   0.0019531
        k(   49) = (  -0.3125000  -0.9375000   0.0625000), wk =   0.0019531
        k(   50) = (  -0.1875000  -0.8125000   0.1875000), wk =   0.0019531
        k(   51) = (  -0.3125000   0.3125000   0.3125000), wk =   0.0019531
        k(   52) = (  -0.4375000   0.4375000   0.1875000), wk =   0.0019531
        k(   53) = (   0.4375000  -0.4375000   1.0625000), wk =   0.0019531
        k(   54) = (   0.3125000  -0.3125000   0.9375000), wk =   0.0019531
        k(   55) = (  -0.3125000   0.5625000   0.3125000), wk =   0.0019531
        k(   56) = (   0.5625000  -0.3125000   1.1875000), wk =   0.0019531
        k(   57) = (   0.4375000  -0.1875000   1.0625000), wk =   0.0019531
        k(   58) = (  -0.3125000  -1.1875000   0.3125000), wk =   0.0019531
        k(   59) = (  -0.4375000   0.4375000   0.4375000), wk =   0.0019531
        k(   60) = (   0.4375000  -0.4375000   1.3125000), wk =   0.0019531
        k(   61) = (   0.0625000  -0.0625000   0.0625000), wk =   0.0019531
        k(   62) = (   0.0625000   0.0625000  -0.0625000), wk =   0.0019531
        k(   63) = (  -0.0625000  -0.0625000  -0.0625000), wk =   0.0019531
        k(   64) = (   0.1875000  -0.1875000  -0.0625000), wk =   0.0019531
        k(   65) = (   0.1875000   0.1875000   0.0625000), wk =   0.0019531
        k(   66) = (  -0.1875000  -0.1875000   0.0625000), wk =   0.0019531
        k(   67) = (  -0.0625000  -0.1875000  -0.1875000), wk =   0.0019531
        k(   68) = (   0.0625000  -0.1875000   0.1875000), wk =   0.0019531
        k(   69) = (  -0.0625000   0.1875000   0.1875000), wk =   0.0019531
        k(   70) = (   0.0625000   0.1875000  -0.1875000), wk =   0.0019531
        k(   71) = (   0.1875000  -0.0625000   0.1875000), wk =   0.0019531
        k(   72) = (   0.1875000   0.0625000  -0.1875000), wk =   0.0019531
        k(   73) = (  -0.1875000  -0.0625000  -0.1875000), wk =   0.0019531
        k(   74) = (  -0.1875000   0.0625000   0.1875000), wk =   0.0019531
        k(   75) = (   0.3125000  -0.3125000  -0.1875000), wk =   0.0019531
        k(   76) = (   0.3125000   0.3125000   0.1875000), wk =   0.0019531
        k(   77) = (  -0.3125000  -0.3125000   0.1875000), wk =   0.0019531
        k(   78) = (  -0.1875000  -0.3125000  -0.3125000), wk =   0.0019531
        k(   79) = (   0.1875000  -0.3125000   0.3125000), wk =   0.0019531
        k(   80) = (  -0.1875000   0.3125000   0.3125000), wk =   0.0019531
        k(   81) = (   0.1875000   0.3125000  -0.3125000), wk =   0.0019531
        k(   82) = (   0.3125000  -0.1875000   0.3125000), wk =   0.0019531
        k(   83) = (   0.3125000   0.1875000  -0.3125000), wk =   0.0019531
        k(   84) = (  -0.3125000  -0.1875000  -0.3125000), wk =   0.0019531
        k(   85) = (  -0.3125000   0.1875000   0.3125000), wk =   0.0019531
        k(   86) = (   0.4375000  -0.4375000  -0.3125000), wk =   0.0019531
        k(   87) = (   0.4375000   0.4375000   0.3125000), wk =   0.0019531
        k(   88) = (  -0.4375000  -0.4375000   0.3125000), wk =   0.0019531
        k(   89) = (  -0.3125000  -0.4375000  -0.4375000), wk =   0.0019531
        k(   90) = (   0.3125000  -0.4375000   0.4375000), wk =   0.0019531
        k(   91) = (  -0.3125000   0.4375000   0.4375000), wk =   0.0019531
        k(   92) = (   0.3125000   0.4375000  -0.4375000), wk =   0.0019531
        k(   93) = (   0.4375000  -0.3125000   0.4375000), wk =   0.0019531
        k(   94) = (   0.4375000   0.3125000  -0.4375000), wk =   0.0019531
        k(   95) = (  -0.4375000  -0.3125000  -0.4375000), wk =   0.0019531
        k(   96) = (  -0.4375000   0.3125000   0.4375000), wk =   0.0019531
        k(   97) = (  -0.4375000   0.4375000   0.5625000), wk =   0.0019531
        k(   98) = (  -0.4375000  -0.4375000  -0.5625000), wk =   0.0019531
        k(   99) = (   0.4375000   0.4375000  -0.5625000), wk =   0.0019531
        k(  100) = (   0.5625000   0.4375000   0.4375000), wk =   0.0019531
        k(  101) = (  -0.5625000   0.4375000  -0.4375000), wk =   0.0019531
        k(  102) = (   0.5625000  -0.4375000  -0.4375000), wk =   0.0019531
        k(  103) = (  -0.5625000  -0.4375000   0.4375000), wk =   0.0019531
        k(  104) = (  -0.4375000   0.5625000  -0.4375000), wk =   0.0019531
        k(  105) = (  -0.4375000  -0.5625000   0.4375000), wk =   0.0019531
        k(  106) = (   0.4375000   0.5625000   0.4375000), wk =   0.0019531
        k(  107) = (   0.4375000  -0.5625000  -0.4375000), wk =   0.0019531
        k(  108) = (  -0.3125000   0.3125000   0.4375000), wk =   0.0019531
        k(  109) = (  -0.3125000  -0.3125000  -0.4375000), wk =   0.0019531
        k(  110) = (   0.3125000   0.3125000  -0.4375000), wk =   0.0019531
        k(  111) = (   0.4375000   0.3125000   0.3125000), wk =   0.0019531
        k(  112) = (  -0.4375000   0.3125000  -0.3125000), wk =   0.0019531
        k(  113) = (   0.4375000  -0.3125000  -0.3125000), wk =   0.0019531
        k(  114) = (  -0.4375000  -0.3125000   0.3125000), wk =   0.0019531
        k(  115) = (  -0.3125000   0.4375000  -0.3125000), wk =   0.0019531
        k(  116) = (  -0.3125000  -0.4375000   0.3125000), wk =   0.0019531
        k(  117) = (   0.3125000   0.4375000   0.3125000), wk =   0.0019531
        k(  118) = (   0.3125000  -0.4375000  -0.3125000), wk =   0.0019531
        k(  119) = (  -0.1875000   0.1875000   0.3125000), wk =   0.0019531
        k(  120) = (  -0.1875000  -0.1875000  -0.3125000), wk =   0.0019531
        k(  121) = (   0.1875000   0.1875000  -0.3125000), wk =   0.0019531
        k(  122) = (   0.3125000   0.1875000   0.1875000), wk =   0.0019531
        k(  123) = (  -0.3125000   0.1875000  -0.1875000), wk =   0.0019531
        k(  124) = (   0.3125000  -0.1875000  -0.1875000), wk =   0.0019531
        k(  125) = (  -0.3125000  -0.1875000   0.1875000), wk =   0.0019531
        k(  126) = (  -0.1875000   0.3125000  -0.1875000), wk =   0.0019531
        k(  127) = (  -0.1875000  -0.3125000   0.1875000), wk =   0.0019531
        k(  128) = (   0.1875000   0.3125000   0.1875000), wk =   0.0019531
        k(  129) = (   0.1875000  -0.3125000  -0.1875000), wk =   0.0019531
        k(  130) = (  -0.0625000   0.0625000   0.1875000), wk =   0.0019531
        k(  131) = (  -0.0625000  -0.0625000  -0.1875000), wk =   0.0019531
        k(  132) = (   0.0625000   0.0625000  -0.1875000), wk =   0.0019531
        k(  133) = (   0.1875000   0.0625000   0.0625000), wk =   0.0019531
        k(  134) = (  -0.1875000   0.0625000  -0.0625000), wk =   0.0019531
        k(  135) = (   0.1875000  -0.0625000  -0.0625000), wk =   0.0019531
        k(  136) = (  -0.1875000  -0.0625000   0.0625000), wk =   0.0019531
        k(  137) = (  -0.0625000   0.1875000  -0.0625000), wk =   0.0019531
        k(  138) = (  -0.0625000  -0.1875000   0.0625000), wk =   0.0019531
        k(  139) = (   0.0625000   0.1875000   0.0625000), wk =   0.0019531
        k(  140) = (   0.0625000  -0.1875000  -0.0625000), wk =   0.0019531
        k(  141) = (   0.0625000  -0.3125000   0.0625000), wk =   0.0019531
        k(  142) = (   0.0625000   0.3125000  -0.0625000), wk =   0.0019531
        k(  143) = (  -0.0625000  -0.3125000  -0.0625000), wk =   0.0019531
        k(  144) = (   0.3125000  -0.0625000  -0.0625000), wk =   0.0019531
        k(  145) = (  -0.3125000   0.0625000  -0.0625000), wk =   0.0019531
        k(  146) = (   0.3125000   0.0625000   0.0625000), wk =   0.0019531
        k(  147) = (  -0.3125000  -0.0625000   0.0625000), wk =   0.0019531
        k(  148) = (   0.0625000   0.0625000   0.3125000), wk =   0.0019531
        k(  149) = (   0.0625000  -0.0625000  -0.3125000), wk =   0.0019531
        k(  150) = (  -0.0625000   0.0625000  -0.3125000), wk =   0.0019531
        k(  151) = (  -0.0625000  -0.0625000   0.3125000), wk =   0.0019531
        k(  152) = (   0.1875000  -0.4375000  -0.0625000), wk =   0.0019531
        k(  153) = (   0.1875000   0.4375000   0.0625000), wk =   0.0019531
        k(  154) = (  -0.1875000  -0.4375000   0.0625000), wk =   0.0019531
        k(  155) = (   0.4375000  -0.1875000   0.0625000), wk =   0.0019531
        k(  156) = (  -0.4375000   0.1875000   0.0625000), wk =   0.0019531
        k(  157) = (   0.4375000   0.1875000  -0.0625000), wk =   0.0019531
        k(  158) = (  -0.4375000  -0.1875000  -0.0625000), wk =   0.0019531
        k(  159) = (  -0.0625000  -0.4375000  -0.1875000), wk =   0.0019531
        k(  160) = (   0.0625000  -0.4375000   0.1875000), wk =   0.0019531
        k(  161) = (  -0.0625000   0.4375000   0.1875000), wk =   0.0019531
        k(  162) = (   0.0625000   0.4375000  -0.1875000), wk =   0.0019531
        k(  163) = (   0.1875000  -0.0625000   0.4375000), wk =   0.0019531
        k(  164) = (   0.1875000   0.0625000  -0.4375000), wk =   0.0019531
        k(  165) = (  -0.1875000  -0.0625000  -0.4375000), wk =   0.0019531
        k(  166) = (  -0.1875000   0.0625000   0.4375000), wk =   0.0019531
        k(  167) = (   0.4375000  -0.0625000  -0.1875000), wk =   0.0019531
        k(  168) = (  -0.4375000  -0.0625000   0.1875000), wk =   0.0019531
        k(  169) = (   0.4375000   0.0625000   0.1875000), wk =   0.0019531
        k(  170) = (  -0.4375000   0.0625000  -0.1875000), wk =   0.0019531
        k(  171) = (  -0.0625000  -0.1875000   0.4375000), wk =   0.0019531
        k(  172) = (  -0.0625000   0.1875000  -0.4375000), wk =   0.0019531
        k(  173) = (   0.0625000   0.1875000   0.4375000), wk =   0.0019531
        k(  174) = (   0.0625000  -0.1875000  -0.4375000), wk =   0.0019531
        k(  175) = (   0.3125000  -0.5625000  -0.1875000), wk =   0.0019531
        k(  176) = (   0.3125000   0.5625000   0.1875000), wk =   0.0019531
        k(  177) = (  -0.3125000  -0.5625000   0.1875000), wk =   0.0019531
        k(  178) = (   0.5625000  -0.3125000   0.1875000), wk =   0.0019531
        k(  179) = (  -0.5625000   0.3125000   0.1875000), wk =   0.0019531
        k(  180) = (   0.5625000   0.3125000  -0.1875000), wk =   0.0019531
        k(  181) = (  -0.5625000  -0.3125000  -0.1875000), wk =   0.0019531
        k(  182) = (  -0.1875000  -0.5625000  -0.3125000), wk =   0.0019531
        k(  183) = (   0.1875000  -0.5625000   0.3125000), wk =   0.0019531
        k(  184) = (  -0.1875000   0.5625000   0.3125000), wk =   0.0019531
        k(  185) = (   0.1875000   0.5625000  -0.3125000), wk =   0.0019531
        k(  186) = (   0.3125000  -0.1875000   0.5625000), wk =   0.0019531
        k(  187) = (   0.3125000   0.1875000  -0.5625000), wk =   0.0019531
        k(  188) = (  -0.3125000  -0.1875000  -0.5625000), wk =   0.0019531
        k(  189) = (  -0.3125000   0.1875000   0.5625000), wk =   0.0019531
        k(  190) = (   0.5625000  -0.1875000  -0.3125000), wk =   0.0019531
        k(  191) = (  -0.5625000  -0.1875000   0.3125000), wk =   0.0019531
        k(  192) = (   0.5625000   0.1875000   0.3125000), wk =   0.0019531
        k(  193) = (  -0.5625000   0.1875000  -0.3125000), wk =   0.0019531
        k(  194) = (  -0.1875000  -0.3125000   0.5625000), wk =   0.0019531
        k(  195) = (  -0.1875000   0.3125000  -0.5625000), wk =   0.0019531
        k(  196) = (   0.1875000   0.3125000   0.5625000), wk =   0.0019531
        k(  197) = (   0.1875000  -0.3125000  -0.5625000), wk =   0.0019531
        k(  198) = (  -0.5625000   0.3125000   0.6875000), wk =   0.0019531
        k(  199) = (  -0.5625000  -0.3125000  -0.6875000), wk =   0.0019531
        k(  200) = (   0.5625000   0.3125000  -0.6875000), wk =   0.0019531
        k(  201) = (  -0.3125000   0.5625000  -0.6875000), wk =   0.0019531
        k(  202) = (   0.3125000  -0.5625000  -0.6875000), wk =   0.0019531
        k(  203) = (  -0.3125000  -0.5625000   0.6875000), wk =   0.0019531
        k(  204) = (   0.3125000   0.5625000   0.6875000), wk =   0.0019531
        k(  205) = (   0.6875000   0.3125000   0.5625000), wk =   0.0019531
        k(  206) = (  -0.6875000   0.3125000  -0.5625000), wk =   0.0019531
        k(  207) = (   0.6875000  -0.3125000  -0.5625000), wk =   0.0019531
        k(  208) = (  -0.6875000  -0.3125000   0.5625000), wk =   0.0019531
        k(  209) = (  -0.5625000   0.6875000  -0.3125000), wk =   0.0019531
        k(  210) = (  -0.5625000  -0.6875000   0.3125000), wk =   0.0019531
        k(  211) = (   0.5625000   0.6875000   0.3125000), wk =   0.0019531
        k(  212) = (   0.5625000  -0.6875000  -0.3125000), wk =   0.0019531
        k(  213) = (  -0.3125000   0.6875000   0.5625000), wk =   0.0019531
        k(  214) = (   0.3125000   0.6875000  -0.5625000), wk =   0.0019531
        k(  215) = (  -0.3125000  -0.6875000  -0.5625000), wk =   0.0019531
        k(  216) = (   0.3125000  -0.6875000   0.5625000), wk =   0.0019531
        k(  217) = (   0.6875000   0.5625000  -0.3125000), wk =   0.0019531
        k(  218) = (   0.6875000  -0.5625000   0.3125000), wk =   0.0019531
        k(  219) = (  -0.6875000  -0.5625000  -0.3125000), wk =   0.0019531
        k(  220) = (  -0.6875000   0.5625000   0.3125000), wk =   0.0019531
        k(  221) = (  -0.4375000   0.1875000   0.5625000), wk =   0.0019531
        k(  222) = (  -0.4375000  -0.1875000  -0.5625000), wk =   0.0019531
        k(  223) = (   0.4375000   0.1875000  -0.5625000), wk =   0.0019531
        k(  224) = (  -0.1875000   0.4375000  -0.5625000), wk =   0.0019531
        k(  225) = (   0.1875000  -0.4375000  -0.5625000), wk =   0.0019531
        k(  226) = (  -0.1875000  -0.4375000   0.5625000), wk =   0.0019531
        k(  227) = (   0.1875000   0.4375000   0.5625000), wk =   0.0019531
        k(  228) = (   0.5625000   0.1875000   0.4375000), wk =   0.0019531
        k(  229) = (  -0.5625000   0.1875000  -0.4375000), wk =   0.0019531
        k(  230) = (   0.5625000  -0.1875000  -0.4375000), wk =   0.0019531
        k(  231) = (  -0.5625000  -0.1875000   0.4375000), wk =   0.0019531
        k(  232) = (  -0.4375000   0.5625000  -0.1875000), wk =   0.0019531
        k(  233) = (  -0.4375000  -0.5625000   0.1875000), wk =   0.0019531
        k(  234) = (   0.4375000   0.5625000   0.1875000), wk =   0.0019531
        k(  235) = (   0.4375000  -0.5625000  -0.1875000), wk =   0.0019531
        k(  236) = (  -0.1875000   0.5625000   0.4375000), wk =   0.0019531
        k(  237) = (   0.1875000   0.5625000  -0.4375000), wk =   0.0019531
        k(  238) = (  -0.1875000  -0.5625000  -0.4375000), wk =   0.0019531
        k(  239) = (   0.1875000  -0.5625000   0.4375000), wk =   0.0019531
        k(  240) = (   0.5625000   0.4375000  -0.1875000), wk =   0.0019531
        k(  241) = (   0.5625000  -0.4375000   0.1875000), wk =   0.0019531
        k(  242) = (  -0.5625000  -0.4375000  -0.1875000), wk =   0.0019531
        k(  243) = (  -0.5625000   0.4375000   0.1875000), wk =   0.0019531
        k(  244) = (  -0.3125000   0.0625000   0.4375000), wk =   0.0019531
        k(  245) = (  -0.3125000  -0.0625000  -0.4375000), wk =   0.0019531
        k(  246) = (   0.3125000   0.0625000  -0.4375000), wk =   0.0019531
        k(  247) = (  -0.0625000   0.3125000  -0.4375000), wk =   0.0019531
        k(  248) = (   0.0625000  -0.3125000  -0.4375000), wk =   0.0019531
        k(  249) = (  -0.0625000  -0.3125000   0.4375000), wk =   0.0019531
        k(  250) = (   0.0625000   0.3125000   0.4375000), wk =   0.0019531
        k(  251) = (   0.4375000   0.0625000   0.3125000), wk =   0.0019531
        k(  252) = (  -0.4375000   0.0625000  -0.3125000), wk =   0.0019531
        k(  253) = (   0.4375000  -0.0625000  -0.3125000), wk =   0.0019531
        k(  254) = (  -0.4375000  -0.0625000   0.3125000), wk =   0.0019531
        k(  255) = (  -0.3125000   0.4375000  -0.0625000), wk =   0.0019531
        k(  256) = (  -0.3125000  -0.4375000   0.0625000), wk =   0.0019531
        k(  257) = (   0.3125000   0.4375000   0.0625000), wk =   0.0019531
        k(  258) = (   0.3125000  -0.4375000  -0.0625000), wk =   0.0019531
        k(  259) = (  -0.0625000   0.4375000   0.3125000), wk =   0.0019531
        k(  260) = (   0.0625000   0.4375000  -0.3125000), wk =   0.0019531
        k(  261) = (  -0.0625000  -0.4375000  -0.3125000), wk =   0.0019531
        k(  262) = (   0.0625000  -0.4375000   0.3125000), wk =   0.0019531
        k(  263) = (   0.4375000   0.3125000  -0.0625000), wk =   0.0019531
        k(  264) = (   0.4375000  -0.3125000   0.0625000), wk =   0.0019531
        k(  265) = (  -0.4375000  -0.3125000  -0.0625000), wk =   0.0019531
        k(  266) = (  -0.4375000   0.3125000   0.0625000), wk =   0.0019531
        k(  267) = (  -0.1875000  -0.0625000   0.3125000), wk =   0.0019531
        k(  268) = (  -0.1875000   0.0625000  -0.3125000), wk =   0.0019531
        k(  269) = (   0.1875000  -0.0625000  -0.3125000), wk =   0.0019531
        k(  270) = (   0.0625000   0.1875000  -0.3125000), wk =   0.0019531
        k(  271) = (  -0.0625000  -0.1875000  -0.3125000), wk =   0.0019531
        k(  272) = (   0.0625000  -0.1875000   0.3125000), wk =   0.0019531
        k(  273) = (  -0.0625000   0.1875000   0.3125000), wk =   0.0019531
        k(  274) = (   0.3125000  -0.0625000   0.1875000), wk =   0.0019531
        k(  275) = (  -0.3125000  -0.0625000  -0.1875000), wk =   0.0019531
        k(  276) = (   0.3125000   0.0625000  -0.1875000), wk =   0.0019531
        k(  277) = (  -0.3125000   0.0625000   0.1875000), wk =   0.0019531
        k(  278) = (  -0.1875000   0.3125000   0.0625000), wk =   0.0019531
        k(  279) = (  -0.1875000  -0.3125000  -0.0625000), wk =   0.0019531
        k(  280) = (   0.1875000   0.3125000  -0.0625000), wk =   0.0019531
        k(  281) = (   0.1875000  -0.3125000   0.0625000), wk =   0.0019531
        k(  282) = (   0.0625000   0.3125000   0.1875000), wk =   0.0019531
        k(  283) = (  -0.0625000   0.3125000  -0.1875000), wk =   0.0019531
        k(  284) = (   0.0625000  -0.3125000  -0.1875000), wk =   0.0019531
        k(  285) = (  -0.0625000  -0.3125000   0.1875000), wk =   0.0019531
        k(  286) = (   0.3125000   0.1875000   0.0625000), wk =   0.0019531
        k(  287) = (   0.3125000  -0.1875000  -0.0625000), wk =   0.0019531
        k(  288) = (  -0.3125000  -0.1875000   0.0625000), wk =   0.0019531
        k(  289) = (  -0.3125000   0.1875000  -0.0625000), wk =   0.0019531
        k(  290) = (   0.0625000  -0.5625000   0.0625000), wk =   0.0019531
        k(  291) = (   0.0625000   0.5625000  -0.0625000), wk =   0.0019531
        k(  292) = (  -0.0625000  -0.5625000  -0.0625000), wk =   0.0019531
        k(  293) = (   0.5625000  -0.0625000  -0.0625000), wk =   0.0019531
        k(  294) = (  -0.5625000   0.0625000  -0.0625000), wk =   0.0019531
        k(  295) = (   0.5625000   0.0625000   0.0625000), wk =   0.0019531
        k(  296) = (  -0.5625000  -0.0625000   0.0625000), wk =   0.0019531
        k(  297) = (   0.0625000   0.0625000   0.5625000), wk =   0.0019531
        k(  298) = (   0.0625000  -0.0625000  -0.5625000), wk =   0.0019531
        k(  299) = (  -0.0625000   0.0625000  -0.5625000), wk =   0.0019531
        k(  300) = (  -0.0625000  -0.0625000   0.5625000), wk =   0.0019531
        k(  301) = (   0.1875000  -0.6875000  -0.0625000), wk =   0.0019531
        k(  302) = (   0.1875000   0.6875000   0.0625000), wk =   0.0019531
        k(  303) = (  -0.1875000  -0.6875000   0.0625000), wk =   0.0019531
        k(  304) = (   0.6875000  -0.1875000   0.0625000), wk =   0.0019531
        k(  305) = (  -0.6875000   0.1875000   0.0625000), wk =   0.0019531
        k(  306) = (   0.6875000   0.1875000  -0.0625000), wk =   0.0019531
        k(  307) = (  -0.6875000  -0.1875000  -0.0625000), wk =   0.0019531
        k(  308) = (  -0.0625000  -0.6875000  -0.1875000), wk =   0.0019531
        k(  309) = (   0.0625000  -0.6875000   0.1875000), wk =   0.0019531
        k(  310) = (  -0.0625000   0.6875000   0.1875000), wk =   0.0019531
        k(  311) = (   0.0625000   0.6875000  -0.1875000), wk =   0.0019531
        k(  312) = (   0.1875000  -0.0625000   0.6875000), wk =   0.0019531
        k(  313) = (   0.1875000   0.0625000  -0.6875000), wk =   0.0019531
        k(  314) = (  -0.1875000  -0.0625000  -0.6875000), wk =   0.0019531
        k(  315) = (  -0.1875000   0.0625000   0.6875000), wk =   0.0019531
        k(  316) = (   0.6875000  -0.0625000  -0.1875000), wk =   0.0019531
        k(  317) = (  -0.6875000  -0.0625000   0.1875000), wk =   0.0019531
        k(  318) = (   0.6875000   0.0625000   0.1875000), wk =   0.0019531
        k(  319) = (  -0.6875000   0.0625000  -0.1875000), wk =   0.0019531
        k(  320) = (  -0.0625000  -0.1875000   0.6875000), wk =   0.0019531
        k(  321) = (  -0.0625000   0.1875000  -0.6875000), wk =   0.0019531
        k(  322) = (   0.0625000   0.1875000   0.6875000), wk =   0.0019531
        k(  323) = (   0.0625000  -0.1875000  -0.6875000), wk =   0.0019531
        k(  324) = (  -0.6875000   0.1875000   0.8125000), wk =   0.0019531
        k(  325) = (  -0.6875000  -0.1875000  -0.8125000), wk =   0.0019531
        k(  326) = (   0.6875000   0.1875000  -0.8125000), wk =   0.0019531
        k(  327) = (  -0.1875000   0.6875000  -0.8125000), wk =   0.0019531
        k(  328) = (   0.1875000  -0.6875000  -0.8125000), wk =   0.0019531
        k(  329) = (  -0.1875000  -0.6875000   0.8125000), wk =   0.0019531
        k(  330) = (   0.1875000   0.6875000   0.8125000), wk =   0.0019531
        k(  331) = (   0.8125000   0.1875000   0.6875000), wk =   0.0019531
        k(  332) = (  -0.8125000   0.1875000  -0.6875000), wk =   0.0019531
        k(  333) = (   0.8125000  -0.1875000  -0.6875000), wk =   0.0019531
        k(  334) = (  -0.8125000  -0.1875000   0.6875000), wk =   0.0019531
        k(  335) = (  -0.6875000   0.8125000  -0.1875000), wk =   0.0019531
        k(  336) = (  -0.6875000  -0.8125000   0.1875000), wk =   0.0019531
        k(  337) = (   0.6875000   0.8125000   0.1875000), wk =   0.0019531
        k(  338) = (   0.6875000  -0.8125000  -0.1875000), wk =   0.0019531
        k(  339) = (  -0.1875000   0.8125000   0.6875000), wk =   0.0019531
        k(  340) = (   0.1875000   0.8125000  -0.6875000), wk =   0.0019531
        k(  341) = (  -0.1875000  -0.8125000  -0.6875000), wk =   0.0019531
        k(  342) = (   0.1875000  -0.8125000   0.6875000), wk =   0.0019531
        k(  343) = (   0.8125000   0.6875000  -0.1875000), wk =   0.0019531
        k(  344) = (   0.8125000  -0.6875000   0.1875000), wk =   0.0019531
        k(  345) = (  -0.8125000  -0.6875000  -0.1875000), wk =   0.0019531
        k(  346) = (  -0.8125000   0.6875000   0.1875000), wk =   0.0019531
        k(  347) = (  -0.5625000   0.0625000   0.6875000), wk =   0.0019531
        k(  348) = (  -0.5625000  -0.0625000  -0.6875000), wk =   0.0019531
        k(  349) = (   0.5625000   0.0625000  -0.6875000), wk =   0.0019531
        k(  350) = (  -0.0625000   0.5625000  -0.6875000), wk =   0.0019531
        k(  351) = (   0.0625000  -0.5625000  -0.6875000), wk =   0.0019531
        k(  352) = (  -0.0625000  -0.5625000   0.6875000), wk =   0.0019531
        k(  353) = (   0.0625000   0.5625000   0.6875000), wk =   0.0019531
        k(  354) = (   0.6875000   0.0625000   0.5625000), wk =   0.0019531
        k(  355) = (  -0.6875000   0.0625000  -0.5625000), wk =   0.0019531
        k(  356) = (   0.6875000  -0.0625000  -0.5625000), wk =   0.0019531
        k(  357) = (  -0.6875000  -0.0625000   0.5625000), wk =   0.0019531
        k(  358) = (  -0.5625000   0.6875000  -0.0625000), wk =   0.0019531
        k(  359) = (  -0.5625000  -0.6875000   0.0625000), wk =   0.0019531
        k(  360) = (   0.5625000   0.6875000   0.0625000), wk =   0.0019531
        k(  361) = (   0.5625000  -0.6875000  -0.0625000), wk =   0.0019531
        k(  362) = (  -0.0625000   0.6875000   0.5625000), wk =   0.0019531
        k(  363) = (   0.0625000   0.6875000  -0.5625000), wk =   0.0019531
        k(  364) = (  -0.0625000  -0.6875000  -0.5625000), wk =   0.0019531
        k(  365) = (   0.0625000  -0.6875000   0.5625000), wk =   0.0019531
        k(  366) = (   0.6875000   0.5625000  -0.0625000), wk =   0.0019531
        k(  367) = (   0.6875000  -0.5625000   0.0625000), wk =   0.0019531
        k(  368) = (  -0.6875000  -0.5625000  -0.0625000), wk =   0.0019531
        k(  369) = (  -0.6875000   0.5625000   0.0625000), wk =   0.0019531
        k(  370) = (  -0.4375000  -0.0625000   0.5625000), wk =   0.0019531
        k(  371) = (  -0.4375000   0.0625000  -0.5625000), wk =   0.0019531
        k(  372) = (   0.4375000  -0.0625000  -0.5625000), wk =   0.0019531
        k(  373) = (   0.0625000   0.4375000  -0.5625000), wk =   0.0019531
        k(  374) = (  -0.0625000  -0.4375000  -0.5625000), wk =   0.0019531
        k(  375) = (   0.0625000  -0.4375000   0.5625000), wk =   0.0019531
        k(  376) = (  -0.0625000   0.4375000   0.5625000), wk =   0.0019531
        k(  377) = (   0.5625000  -0.0625000   0.4375000), wk =   0.0019531
        k(  378) = (  -0.5625000  -0.0625000  -0.4375000), wk =   0.0019531
        k(  379) = (   0.5625000   0.0625000  -0.4375000), wk =   0.0019531
        k(  380) = (  -0.5625000   0.0625000   0.4375000), wk =   0.0019531
        k(  381) = (  -0.4375000   0.5625000   0.0625000), wk =   0.0019531
        k(  382) = (  -0.4375000  -0.5625000  -0.0625000), wk =   0.0019531
        k(  383) = (   0.4375000   0.5625000  -0.0625000), wk =   0.0019531
        k(  384) = (   0.4375000  -0.5625000   0.0625000), wk =   0.0019531
        k(  385) = (   0.0625000   0.5625000   0.4375000), wk =   0.0019531
        k(  386) = (  -0.0625000   0.5625000  -0.4375000), wk =   0.0019531
        k(  387) = (   0.0625000  -0.5625000  -0.4375000), wk =   0.0019531
        k(  388) = (  -0.0625000  -0.5625000   0.4375000), wk =   0.0019531
        k(  389) = (   0.5625000   0.4375000   0.0625000), wk =   0.0019531
        k(  390) = (   0.5625000  -0.4375000  -0.0625000), wk =   0.0019531
        k(  391) = (  -0.5625000  -0.4375000   0.0625000), wk =   0.0019531
        k(  392) = (  -0.5625000   0.4375000  -0.0625000), wk =   0.0019531
        k(  393) = (  -0.3125000  -0.1875000   0.4375000), wk =   0.0019531
        k(  394) = (  -0.3125000   0.1875000  -0.4375000), wk =   0.0019531
        k(  395) = (   0.3125000  -0.1875000  -0.4375000), wk =   0.0019531
        k(  396) = (   0.1875000   0.3125000  -0.4375000), wk =   0.0019531
        k(  397) = (  -0.1875000  -0.3125000  -0.4375000), wk =   0.0019531
        k(  398) = (   0.1875000  -0.3125000   0.4375000), wk =   0.0019531
        k(  399) = (  -0.1875000   0.3125000   0.4375000), wk =   0.0019531
        k(  400) = (   0.4375000  -0.1875000   0.3125000), wk =   0.0019531
        k(  401) = (  -0.4375000  -0.1875000  -0.3125000), wk =   0.0019531
        k(  402) = (   0.4375000   0.1875000  -0.3125000), wk =   0.0019531
        k(  403) = (  -0.4375000   0.1875000   0.3125000), wk =   0.0019531
        k(  404) = (  -0.3125000   0.4375000   0.1875000), wk =   0.0019531
        k(  405) = (  -0.3125000  -0.4375000  -0.1875000), wk =   0.0019531
        k(  406) = (   0.3125000   0.4375000  -0.1875000), wk =   0.0019531
        k(  407) = (   0.3125000  -0.4375000   0.1875000), wk =   0.0019531
        k(  408) = (   0.1875000   0.4375000   0.3125000), wk =   0.0019531
        k(  409) = (  -0.1875000   0.4375000  -0.3125000), wk =   0.0019531
        k(  410) = (   0.1875000  -0.4375000  -0.3125000), wk =   0.0019531
        k(  411) = (  -0.1875000  -0.4375000   0.3125000), wk =   0.0019531
        k(  412) = (   0.4375000   0.3125000   0.1875000), wk =   0.0019531
        k(  413) = (   0.4375000  -0.3125000  -0.1875000), wk =   0.0019531
        k(  414) = (  -0.4375000  -0.3125000   0.1875000), wk =   0.0019531
        k(  415) = (  -0.4375000   0.3125000  -0.1875000), wk =   0.0019531
        k(  416) = (   0.0625000  -0.8125000   0.0625000), wk =   0.0019531
        k(  417) = (   0.0625000   0.8125000  -0.0625000), wk =   0.0019531
        k(  418) = (  -0.0625000  -0.8125000  -0.0625000), wk =   0.0019531
        k(  419) = (   0.8125000  -0.0625000  -0.0625000), wk =   0.0019531
        k(  420) = (  -0.8125000   0.0625000  -0.0625000), wk =   0.0019531
        k(  421) = (   0.8125000   0.0625000   0.0625000), wk =   0.0019531
        k(  422) = (  -0.8125000  -0.0625000   0.0625000), wk =   0.0019531
        k(  423) = (   0.0625000   0.0625000   0.8125000), wk =   0.0019531
        k(  424) = (   0.0625000  -0.0625000  -0.8125000), wk =   0.0019531
        k(  425) = (  -0.0625000   0.0625000  -0.8125000), wk =   0.0019531
        k(  426) = (  -0.0625000  -0.0625000   0.8125000), wk =   0.0019531
        k(  427) = (  -0.8125000   0.0625000   0.9375000), wk =   0.0019531
        k(  428) = (  -0.8125000  -0.0625000  -0.9375000), wk =   0.0019531
        k(  429) = (   0.8125000   0.0625000  -0.9375000), wk =   0.0019531
        k(  430) = (  -0.0625000   0.8125000  -0.9375000), wk =   0.0019531
        k(  431) = (   0.0625000  -0.8125000  -0.9375000), wk =   0.0019531
        k(  432) = (  -0.0625000  -0.8125000   0.9375000), wk =   0.0019531
        k(  433) = (   0.0625000   0.8125000   0.9375000), wk =   0.0019531
        k(  434) = (   0.9375000   0.0625000   0.8125000), wk =   0.0019531
        k(  435) = (  -0.9375000   0.0625000  -0.8125000), wk =   0.0019531
        k(  436) = (   0.9375000  -0.0625000  -0.8125000), wk =   0.0019531
        k(  437) = (  -0.9375000  -0.0625000   0.8125000), wk =   0.0019531
        k(  438) = (  -0.8125000   0.9375000  -0.0625000), wk =   0.0019531
        k(  439) = (  -0.8125000  -0.9375000   0.0625000), wk =   0.0019531
        k(  440) = (   0.8125000   0.9375000   0.0625000), wk =   0.0019531
        k(  441) = (   0.8125000  -0.9375000  -0.0625000), wk =   0.0019531
        k(  442) = (  -0.0625000   0.9375000   0.8125000), wk =   0.0019531
        k(  443) = (   0.0625000   0.9375000  -0.8125000), wk =   0.0019531
        k(  444) = (  -0.0625000  -0.9375000  -0.8125000), wk =   0.0019531
        k(  445) = (   0.0625000  -0.9375000   0.8125000), wk =   0.0019531
        k(  446) = (   0.9375000   0.8125000  -0.0625000), wk =   0.0019531
        k(  447) = (   0.9375000  -0.8125000   0.0625000), wk =   0.0019531
        k(  448) = (  -0.9375000  -0.8125000  -0.0625000), wk =   0.0019531
        k(  449) = (  -0.9375000   0.8125000   0.0625000), wk =   0.0019531
        k(  450) = (  -0.6875000  -0.0625000   0.8125000), wk =   0.0019531
        k(  451) = (  -0.6875000   0.0625000  -0.8125000), wk =   0.0019531
        k(  452) = (   0.6875000  -0.0625000  -0.8125000), wk =   0.0019531
        k(  453) = (   0.0625000   0.6875000  -0.8125000), wk =   0.0019531
        k(  454) = (  -0.0625000  -0.6875000  -0.8125000), wk =   0.0019531
        k(  455) = (   0.0625000  -0.6875000   0.8125000), wk =   0.0019531
        k(  456) = (  -0.0625000   0.6875000   0.8125000), wk =   0.0019531
        k(  457) = (   0.8125000  -0.0625000   0.6875000), wk =   0.0019531
        k(  458) = (  -0.8125000  -0.0625000  -0.6875000), wk =   0.0019531
        k(  459) = (   0.8125000   0.0625000  -0.6875000), wk =   0.0019531
        k(  460) = (  -0.8125000   0.0625000   0.6875000), wk =   0.0019531
        k(  461) = (  -0.6875000   0.8125000   0.0625000), wk =   0.0019531
        k(  462) = (  -0.6875000  -0.8125000  -0.0625000), wk =   0.0019531
        k(  463) = (   0.6875000   0.8125000  -0.0625000), wk =   0.0019531
        k(  464) = (   0.6875000  -0.8125000   0.0625000), wk =   0.0019531
        k(  465) = (   0.0625000   0.8125000   0.6875000), wk =   0.0019531
        k(  466) = (  -0.0625000   0.8125000  -0.6875000), wk =   0.0019531
        k(  467) = (   0.0625000  -0.8125000  -0.6875000), wk =   0.0019531
        k(  468) = (  -0.0625000  -0.8125000   0.6875000), wk =   0.0019531
        k(  469) = (   0.8125000   0.6875000   0.0625000), wk =   0.0019531
        k(  470) = (   0.8125000  -0.6875000  -0.0625000), wk =   0.0019531
        k(  471) = (  -0.8125000  -0.6875000   0.0625000), wk =   0.0019531
        k(  472) = (  -0.8125000   0.6875000  -0.0625000), wk =   0.0019531
        k(  473) = (  -0.5625000  -0.1875000   0.6875000), wk =   0.0019531
        k(  474) = (  -0.5625000   0.1875000  -0.6875000), wk =   0.0019531
        k(  475) = (   0.5625000  -0.1875000  -0.6875000), wk =   0.0019531
        k(  476) = (   0.1875000   0.5625000  -0.6875000), wk =   0.0019531
        k(  477) = (  -0.1875000  -0.5625000  -0.6875000), wk =   0.0019531
        k(  478) = (   0.1875000  -0.5625000   0.6875000), wk =   0.0019531
        k(  479) = (  -0.1875000   0.5625000   0.6875000), wk =   0.0019531
        k(  480) = (   0.6875000  -0.1875000   0.5625000), wk =   0.0019531
        k(  481) = (  -0.6875000  -0.1875000  -0.5625000), wk =   0.0019531
        k(  482) = (   0.6875000   0.1875000  -0.5625000), wk =   0.0019531
        k(  483) = (  -0.6875000   0.1875000   0.5625000), wk =   0.0019531
        k(  484) = (  -0.5625000   0.6875000   0.1875000), wk =   0.0019531
        k(  485) = (  -0.5625000  -0.6875000  -0.1875000), wk =   0.0019531
        k(  486) = (   0.5625000   0.6875000  -0.1875000), wk =   0.0019531
        k(  487) = (   0.5625000  -0.6875000   0.1875000), wk =   0.0019531
        k(  488) = (   0.1875000   0.6875000   0.5625000), wk =   0.0019531
        k(  489) = (  -0.1875000   0.6875000  -0.5625000), wk =   0.0019531
        k(  490) = (   0.1875000  -0.6875000  -0.5625000), wk =   0.0019531
        k(  491) = (  -0.1875000  -0.6875000   0.5625000), wk =   0.0019531
        k(  492) = (   0.6875000   0.5625000   0.1875000), wk =   0.0019531
        k(  493) = (   0.6875000  -0.5625000  -0.1875000), wk =   0.0019531
        k(  494) = (  -0.6875000  -0.5625000   0.1875000), wk =   0.0019531
        k(  495) = (  -0.6875000   0.5625000  -0.1875000), wk =   0.0019531
        k(  496) = (  -0.4375000  -0.3125000   0.5625000), wk =   0.0019531
        k(  497) = (  -0.4375000   0.3125000  -0.5625000), wk =   0.0019531
        k(  498) = (   0.4375000  -0.3125000  -0.5625000), wk =   0.0019531
        k(  499) = (   0.3125000   0.4375000  -0.5625000), wk =   0.0019531
        k(  500) = (  -0.3125000  -0.4375000  -0.5625000), wk =   0.0019531
        k(  501) = (   0.3125000  -0.4375000   0.5625000), wk =   0.0019531
        k(  502) = (  -0.3125000   0.4375000   0.5625000), wk =   0.0019531
        k(  503) = (   0.5625000  -0.3125000   0.4375000), wk =   0.0019531
        k(  504) = (  -0.5625000  -0.3125000  -0.4375000), wk =   0.0019531
        k(  505) = (   0.5625000   0.3125000  -0.4375000), wk =   0.0019531
        k(  506) = (  -0.5625000   0.3125000   0.4375000), wk =   0.0019531
        k(  507) = (  -0.4375000   0.5625000   0.3125000), wk =   0.0019531
        k(  508) = (  -0.4375000  -0.5625000  -0.3125000), wk =   0.0019531
        k(  509) = (   0.4375000   0.5625000  -0.3125000), wk =   0.0019531
        k(  510) = (   0.4375000  -0.5625000   0.3125000), wk =   0.0019531
        k(  511) = (   0.3125000   0.5625000   0.4375000), wk =   0.0019531
        k(  512) = (  -0.3125000   0.5625000  -0.4375000), wk =   0.0019531
        k(  513) = (   0.3125000  -0.5625000  -0.4375000), wk =   0.0019531
        k(  514) = (  -0.3125000  -0.5625000   0.4375000), wk =   0.0019531
        k(  515) = (   0.5625000   0.4375000   0.3125000), wk =   0.0019531
        k(  516) = (   0.5625000  -0.4375000  -0.3125000), wk =   0.0019531
        k(  517) = (  -0.5625000  -0.4375000   0.3125000), wk =   0.0019531
        k(  518) = (  -0.5625000   0.4375000  -0.3125000), wk =   0.0019531
        k(  519) = (   0.0625000   0.9375000   0.0625000), wk =   0.0019531
        k(  520) = (   0.0625000  -0.9375000  -0.0625000), wk =   0.0019531
        k(  521) = (  -0.0625000   0.9375000  -0.0625000), wk =   0.0019531
        k(  522) = (  -0.9375000  -0.0625000  -0.0625000), wk =   0.0019531
        k(  523) = (   0.9375000   0.0625000  -0.0625000), wk =   0.0019531
        k(  524) = (  -0.9375000   0.0625000   0.0625000), wk =   0.0019531
        k(  525) = (   0.9375000  -0.0625000   0.0625000), wk =   0.0019531
        k(  526) = (   0.0625000   0.0625000  -0.9375000), wk =   0.0019531
        k(  527) = (   0.0625000  -0.0625000   0.9375000), wk =   0.0019531
        k(  528) = (  -0.0625000   0.0625000   0.9375000), wk =   0.0019531
        k(  529) = (  -0.0625000  -0.0625000  -0.9375000), wk =   0.0019531
        k(  530) = (   0.1875000   0.8125000  -0.0625000), wk =   0.0019531
        k(  531) = (   0.1875000  -0.8125000   0.0625000), wk =   0.0019531
        k(  532) = (  -0.1875000   0.8125000   0.0625000), wk =   0.0019531
        k(  533) = (  -0.8125000  -0.1875000   0.0625000), wk =   0.0019531
        k(  534) = (   0.8125000   0.1875000   0.0625000), wk =   0.0019531
        k(  535) = (  -0.8125000   0.1875000  -0.0625000), wk =   0.0019531
        k(  536) = (   0.8125000  -0.1875000  -0.0625000), wk =   0.0019531
        k(  537) = (  -0.0625000   0.8125000  -0.1875000), wk =   0.0019531
        k(  538) = (   0.0625000   0.8125000   0.1875000), wk =   0.0019531
        k(  539) = (  -0.0625000  -0.8125000   0.1875000), wk =   0.0019531
        k(  540) = (   0.0625000  -0.8125000  -0.1875000), wk =   0.0019531
        k(  541) = (   0.1875000  -0.0625000  -0.8125000), wk =   0.0019531
        k(  542) = (   0.1875000   0.0625000   0.8125000), wk =   0.0019531
        k(  543) = (  -0.1875000  -0.0625000   0.8125000), wk =   0.0019531
        k(  544) = (  -0.1875000   0.0625000  -0.8125000), wk =   0.0019531
        k(  545) = (  -0.8125000  -0.0625000  -0.1875000), wk =   0.0019531
        k(  546) = (   0.8125000  -0.0625000   0.1875000), wk =   0.0019531
        k(  547) = (  -0.8125000   0.0625000   0.1875000), wk =   0.0019531
        k(  548) = (   0.8125000   0.0625000  -0.1875000), wk =   0.0019531
        k(  549) = (  -0.0625000  -0.1875000  -0.8125000), wk =   0.0019531
        k(  550) = (  -0.0625000   0.1875000   0.8125000), wk =   0.0019531
        k(  551) = (   0.0625000   0.1875000  -0.8125000), wk =   0.0019531
        k(  552) = (   0.0625000  -0.1875000   0.8125000), wk =   0.0019531
        k(  553) = (   0.3125000   0.6875000  -0.1875000), wk =   0.0019531
        k(  554) = (   0.3125000  -0.6875000   0.1875000), wk =   0.0019531
        k(  555) = (  -0.3125000   0.6875000   0.1875000), wk =   0.0019531
        k(  556) = (  -0.6875000  -0.3125000   0.1875000), wk =   0.0019531
        k(  557) = (   0.6875000   0.3125000   0.1875000), wk =   0.0019531
        k(  558) = (  -0.6875000   0.3125000  -0.1875000), wk =   0.0019531
        k(  559) = (   0.6875000  -0.3125000  -0.1875000), wk =   0.0019531
        k(  560) = (  -0.1875000   0.6875000  -0.3125000), wk =   0.0019531
        k(  561) = (   0.1875000   0.6875000   0.3125000), wk =   0.0019531
        k(  562) = (  -0.1875000  -0.6875000   0.3125000), wk =   0.0019531
        k(  563) = (   0.1875000  -0.6875000  -0.3125000), wk =   0.0019531
        k(  564) = (   0.3125000  -0.1875000  -0.6875000), wk =   0.0019531
        k(  565) = (   0.3125000   0.1875000   0.6875000), wk =   0.0019531
        k(  566) = (  -0.3125000  -0.1875000   0.6875000), wk =   0.0019531
        k(  567) = (  -0.3125000   0.1875000  -0.6875000), wk =   0.0019531
        k(  568) = (  -0.6875000  -0.1875000  -0.3125000), wk =   0.0019531
        k(  569) = (   0.6875000  -0.1875000   0.3125000), wk =   0.0019531
        k(  570) = (  -0.6875000   0.1875000   0.3125000), wk =   0.0019531
        k(  571) = (   0.6875000   0.1875000  -0.3125000), wk =   0.0019531
        k(  572) = (  -0.1875000  -0.3125000  -0.6875000), wk =   0.0019531
        k(  573) = (  -0.1875000   0.3125000   0.6875000), wk =   0.0019531
        k(  574) = (   0.1875000   0.3125000  -0.6875000), wk =   0.0019531
        k(  575) = (   0.1875000  -0.3125000   0.6875000), wk =   0.0019531
        k(  576) = (   0.0625000   0.6875000   0.0625000), wk =   0.0019531
        k(  577) = (   0.0625000  -0.6875000  -0.0625000), wk =   0.0019531
        k(  578) = (  -0.0625000   0.6875000  -0.0625000), wk =   0.0019531
        k(  579) = (  -0.6875000  -0.0625000  -0.0625000), wk =   0.0019531
        k(  580) = (   0.6875000   0.0625000  -0.0625000), wk =   0.0019531
        k(  581) = (  -0.6875000   0.0625000   0.0625000), wk =   0.0019531
        k(  582) = (   0.6875000  -0.0625000   0.0625000), wk =   0.0019531
        k(  583) = (   0.0625000   0.0625000  -0.6875000), wk =   0.0019531
        k(  584) = (   0.0625000  -0.0625000   0.6875000), wk =   0.0019531
        k(  585) = (  -0.0625000   0.0625000   0.6875000), wk =   0.0019531
        k(  586) = (  -0.0625000  -0.0625000  -0.6875000), wk =   0.0019531
        k(  587) = (   0.1875000   0.5625000  -0.0625000), wk =   0.0019531
        k(  588) = (   0.1875000  -0.5625000   0.0625000), wk =   0.0019531
        k(  589) = (  -0.1875000   0.5625000   0.0625000), wk =   0.0019531
        k(  590) = (  -0.5625000  -0.1875000   0.0625000), wk =   0.0019531
        k(  591) = (   0.5625000   0.1875000   0.0625000), wk =   0.0019531
        k(  592) = (  -0.5625000   0.1875000  -0.0625000), wk =   0.0019531
        k(  593) = (   0.5625000  -0.1875000  -0.0625000), wk =   0.0019531
        k(  594) = (  -0.0625000   0.5625000  -0.1875000), wk =   0.0019531
        k(  595) = (   0.0625000   0.5625000   0.1875000), wk =   0.0019531
        k(  596) = (  -0.0625000  -0.5625000   0.1875000), wk =   0.0019531
        k(  597) = (   0.0625000  -0.5625000  -0.1875000), wk =   0.0019531
        k(  598) = (   0.1875000  -0.0625000  -0.5625000), wk =   0.0019531
        k(  599) = (   0.1875000   0.0625000   0.5625000), wk =   0.0019531
        k(  600) = (  -0.1875000  -0.0625000   0.5625000), wk =   0.0019531
        k(  601) = (  -0.1875000   0.0625000  -0.5625000), wk =   0.0019531
        k(  602) = (  -0.5625000  -0.0625000  -0.1875000), wk =   0.0019531
        k(  603) = (   0.5625000  -0.0625000   0.1875000), wk =   0.0019531
        k(  604) = (  -0.5625000   0.0625000   0.1875000), wk =   0.0019531
        k(  605) = (   0.5625000   0.0625000  -0.1875000), wk =   0.0019531
        k(  606) = (  -0.0625000  -0.1875000  -0.5625000), wk =   0.0019531
        k(  607) = (  -0.0625000   0.1875000   0.5625000), wk =   0.0019531
        k(  608) = (   0.0625000   0.1875000  -0.5625000), wk =   0.0019531
        k(  609) = (   0.0625000  -0.1875000   0.5625000), wk =   0.0019531
        k(  610) = (   0.0625000   0.4375000   0.0625000), wk =   0.0019531
        k(  611) = (   0.0625000  -0.4375000  -0.0625000), wk =   0.0019531
        k(  612) = (  -0.0625000   0.4375000  -0.0625000), wk =   0.0019531
        k(  613) = (  -0.4375000  -0.0625000  -0.0625000), wk =   0.0019531
        k(  614) = (   0.4375000   0.0625000  -0.0625000), wk =   0.0019531
        k(  615) = (  -0.4375000   0.0625000   0.0625000), wk =   0.0019531
        k(  616) = (   0.4375000  -0.0625000   0.0625000), wk =   0.0019531
        k(  617) = (   0.0625000   0.0625000  -0.4375000), wk =   0.0019531
        k(  618) = (   0.0625000  -0.0625000   0.4375000), wk =   0.0019531
        k(  619) = (  -0.0625000   0.0625000   0.4375000), wk =   0.0019531
        k(  620) = (  -0.0625000  -0.0625000  -0.4375000), wk =   0.0019531
        k(  621) = (   0.1875000  -0.1875000   0.1875000), wk =   0.0019531
        k(  622) = (   0.1875000   0.1875000  -0.1875000), wk =   0.0019531
        k(  623) = (  -0.1875000  -0.1875000  -0.1875000), wk =   0.0019531
        k(  624) = (   0.3125000  -0.3125000   0.0625000), wk =   0.0019531
        k(  625) = (   0.3125000   0.3125000  -0.0625000), wk =   0.0019531
        k(  626) = (  -0.3125000  -0.3125000  -0.0625000), wk =   0.0019531
        k(  627) = (   0.0625000  -0.3125000  -0.3125000), wk =   0.0019531
        k(  628) = (  -0.0625000  -0.3125000   0.3125000), wk =   0.0019531
        k(  629) = (   0.0625000   0.3125000   0.3125000), wk =   0.0019531
        k(  630) = (  -0.0625000   0.3125000  -0.3125000), wk =   0.0019531
        k(  631) = (   0.3125000   0.0625000   0.3125000), wk =   0.0019531
        k(  632) = (   0.3125000  -0.0625000  -0.3125000), wk =   0.0019531
        k(  633) = (  -0.3125000   0.0625000  -0.3125000), wk =   0.0019531
        k(  634) = (  -0.3125000  -0.0625000   0.3125000), wk =   0.0019531
        k(  635) = (   0.4375000  -0.4375000  -0.0625000), wk =   0.0019531
        k(  636) = (   0.4375000   0.4375000   0.0625000), wk =   0.0019531
        k(  637) = (  -0.4375000  -0.4375000   0.0625000), wk =   0.0019531
        k(  638) = (  -0.0625000  -0.4375000  -0.4375000), wk =   0.0019531
        k(  639) = (   0.0625000  -0.4375000   0.4375000), wk =   0.0019531
        k(  640) = (  -0.0625000   0.4375000   0.4375000), wk =   0.0019531
        k(  641) = (   0.0625000   0.4375000  -0.4375000), wk =   0.0019531
        k(  642) = (   0.4375000  -0.0625000   0.4375000), wk =   0.0019531
        k(  643) = (   0.4375000   0.0625000  -0.4375000), wk =   0.0019531
        k(  644) = (  -0.4375000  -0.0625000  -0.4375000), wk =   0.0019531
        k(  645) = (  -0.4375000   0.0625000   0.4375000), wk =   0.0019531
        k(  646) = (  -0.4375000   0.4375000   0.8125000), wk =   0.0019531
        k(  647) = (  -0.4375000  -0.4375000  -0.8125000), wk =   0.0019531
        k(  648) = (   0.4375000   0.4375000  -0.8125000), wk =   0.0019531
        k(  649) = (   0.8125000   0.4375000   0.4375000), wk =   0.0019531
        k(  650) = (  -0.8125000   0.4375000  -0.4375000), wk =   0.0019531
        k(  651) = (   0.8125000  -0.4375000  -0.4375000), wk =   0.0019531
        k(  652) = (  -0.8125000  -0.4375000   0.4375000), wk =   0.0019531
        k(  653) = (  -0.4375000   0.8125000  -0.4375000), wk =   0.0019531
        k(  654) = (  -0.4375000  -0.8125000   0.4375000), wk =   0.0019531
        k(  655) = (   0.4375000   0.8125000   0.4375000), wk =   0.0019531
        k(  656) = (   0.4375000  -0.8125000  -0.4375000), wk =   0.0019531
        k(  657) = (  -0.3125000   0.3125000   0.6875000), wk =   0.0019531
        k(  658) = (  -0.3125000  -0.3125000  -0.6875000), wk =   0.0019531
        k(  659) = (   0.3125000   0.3125000  -0.6875000), wk =   0.0019531
        k(  660) = (   0.6875000   0.3125000   0.3125000), wk =   0.0019531
        k(  661) = (  -0.6875000   0.3125000  -0.3125000), wk =   0.0019531
        k(  662) = (   0.6875000  -0.3125000  -0.3125000), wk =   0.0019531
        k(  663) = (  -0.6875000  -0.3125000   0.3125000), wk =   0.0019531
        k(  664) = (  -0.3125000   0.6875000  -0.3125000), wk =   0.0019531
        k(  665) = (  -0.3125000  -0.6875000   0.3125000), wk =   0.0019531
        k(  666) = (   0.3125000   0.6875000   0.3125000), wk =   0.0019531
        k(  667) = (   0.3125000  -0.6875000  -0.3125000), wk =   0.0019531
        k(  668) = (  -0.1875000   0.1875000   0.5625000), wk =   0.0019531
        k(  669) = (  -0.1875000  -0.1875000  -0.5625000), wk =   0.0019531
        k(  670) = (   0.1875000   0.1875000  -0.5625000), wk =   0.0019531
        k(  671) = (   0.5625000   0.1875000   0.1875000), wk =   0.0019531
        k(  672) = (  -0.5625000   0.1875000  -0.1875000), wk =   0.0019531
        k(  673) = (   0.5625000  -0.1875000  -0.1875000), wk =   0.0019531
        k(  674) = (  -0.5625000  -0.1875000   0.1875000), wk =   0.0019531
        k(  675) = (  -0.1875000   0.5625000  -0.1875000), wk =   0.0019531
        k(  676) = (  -0.1875000  -0.5625000   0.1875000), wk =   0.0019531
        k(  677) = (   0.1875000   0.5625000   0.1875000), wk =   0.0019531
        k(  678) = (   0.1875000  -0.5625000  -0.1875000), wk =   0.0019531
        k(  679) = (   0.1875000  -0.4375000   0.1875000), wk =   0.0019531
        k(  680) = (   0.1875000   0.4375000  -0.1875000), wk =   0.0019531
        k(  681) = (  -0.1875000  -0.4375000  -0.1875000), wk =   0.0019531
        k(  682) = (   0.4375000  -0.1875000  -0.1875000), wk =   0.0019531
        k(  683) = (  -0.4375000   0.1875000  -0.1875000), wk =   0.0019531
        k(  684) = (   0.4375000   0.1875000   0.1875000), wk =   0.0019531
        k(  685) = (  -0.4375000  -0.1875000   0.1875000), wk =   0.0019531
        k(  686) = (   0.1875000   0.1875000   0.4375000), wk =   0.0019531
        k(  687) = (   0.1875000  -0.1875000  -0.4375000), wk =   0.0019531
        k(  688) = (  -0.1875000   0.1875000  -0.4375000), wk =   0.0019531
        k(  689) = (  -0.1875000  -0.1875000   0.4375000), wk =   0.0019531
        k(  690) = (   0.3125000  -0.5625000   0.0625000), wk =   0.0019531
        k(  691) = (   0.3125000   0.5625000  -0.0625000), wk =   0.0019531
        k(  692) = (  -0.3125000  -0.5625000  -0.0625000), wk =   0.0019531
        k(  693) = (   0.5625000  -0.3125000  -0.0625000), wk =   0.0019531
        k(  694) = (  -0.5625000   0.3125000  -0.0625000), wk =   0.0019531
        k(  695) = (   0.5625000   0.3125000   0.0625000), wk =   0.0019531
        k(  696) = (  -0.5625000  -0.3125000   0.0625000), wk =   0.0019531
        k(  697) = (   0.0625000  -0.5625000  -0.3125000), wk =   0.0019531
        k(  698) = (  -0.0625000  -0.5625000   0.3125000), wk =   0.0019531
        k(  699) = (   0.0625000   0.5625000   0.3125000), wk =   0.0019531
        k(  700) = (  -0.0625000   0.5625000  -0.3125000), wk =   0.0019531
        k(  701) = (   0.3125000   0.0625000   0.5625000), wk =   0.0019531
        k(  702) = (   0.3125000  -0.0625000  -0.5625000), wk =   0.0019531
        k(  703) = (  -0.3125000   0.0625000  -0.5625000), wk =   0.0019531
        k(  704) = (  -0.3125000  -0.0625000   0.5625000), wk =   0.0019531
        k(  705) = (   0.5625000   0.0625000  -0.3125000), wk =   0.0019531
        k(  706) = (  -0.5625000   0.0625000   0.3125000), wk =   0.0019531
        k(  707) = (   0.5625000  -0.0625000   0.3125000), wk =   0.0019531
        k(  708) = (  -0.5625000  -0.0625000  -0.3125000), wk =   0.0019531
        k(  709) = (   0.0625000  -0.3125000   0.5625000), wk =   0.0019531
        k(  710) = (   0.0625000   0.3125000  -0.5625000), wk =   0.0019531
        k(  711) = (  -0.0625000   0.3125000   0.5625000), wk =   0.0019531
        k(  712) = (  -0.0625000  -0.3125000  -0.5625000), wk =   0.0019531
        k(  713) = (  -0.5625000   0.3125000   0.9375000), wk =   0.0019531
        k(  714) = (  -0.5625000  -0.3125000  -0.9375000), wk =   0.0019531
        k(  715) = (   0.5625000   0.3125000  -0.9375000), wk =   0.0019531
        k(  716) = (  -0.3125000   0.5625000  -0.9375000), wk =   0.0019531
        k(  717) = (   0.3125000  -0.5625000  -0.9375000), wk =   0.0019531
        k(  718) = (  -0.3125000  -0.5625000   0.9375000), wk =   0.0019531
        k(  719) = (   0.3125000   0.5625000   0.9375000), wk =   0.0019531
        k(  720) = (   0.9375000   0.3125000   0.5625000), wk =   0.0019531
        k(  721) = (  -0.9375000   0.3125000  -0.5625000), wk =   0.0019531
        k(  722) = (   0.9375000  -0.3125000  -0.5625000), wk =   0.0019531
        k(  723) = (  -0.9375000  -0.3125000   0.5625000), wk =   0.0019531
        k(  724) = (  -0.5625000   0.9375000  -0.3125000), wk =   0.0019531
        k(  725) = (  -0.5625000  -0.9375000   0.3125000), wk =   0.0019531
        k(  726) = (   0.5625000   0.9375000   0.3125000), wk =   0.0019531
        k(  727) = (   0.5625000  -0.9375000  -0.3125000), wk =   0.0019531
        k(  728) = (  -0.3125000   0.9375000   0.5625000), wk =   0.0019531
        k(  729) = (   0.3125000   0.9375000  -0.5625000), wk =   0.0019531
        k(  730) = (  -0.3125000  -0.9375000  -0.5625000), wk =   0.0019531
        k(  731) = (   0.3125000  -0.9375000   0.5625000), wk =   0.0019531
        k(  732) = (   0.9375000   0.5625000  -0.3125000), wk =   0.0019531
        k(  733) = (   0.9375000  -0.5625000   0.3125000), wk =   0.0019531
        k(  734) = (  -0.9375000  -0.5625000  -0.3125000), wk =   0.0019531
        k(  735) = (  -0.9375000   0.5625000   0.3125000), wk =   0.0019531
        k(  736) = (  -0.4375000   0.1875000   0.8125000), wk =   0.0019531
        k(  737) = (  -0.4375000  -0.1875000  -0.8125000), wk =   0.0019531
        k(  738) = (   0.4375000   0.1875000  -0.8125000), wk =   0.0019531
        k(  739) = (  -0.1875000   0.4375000  -0.8125000), wk =   0.0019531
        k(  740) = (   0.1875000  -0.4375000  -0.8125000), wk =   0.0019531
        k(  741) = (  -0.1875000  -0.4375000   0.8125000), wk =   0.0019531
        k(  742) = (   0.1875000   0.4375000   0.8125000), wk =   0.0019531
        k(  743) = (   0.8125000   0.1875000   0.4375000), wk =   0.0019531
        k(  744) = (  -0.8125000   0.1875000  -0.4375000), wk =   0.0019531
        k(  745) = (   0.8125000  -0.1875000  -0.4375000), wk =   0.0019531
        k(  746) = (  -0.8125000  -0.1875000   0.4375000), wk =   0.0019531
        k(  747) = (  -0.4375000   0.8125000  -0.1875000), wk =   0.0019531
        k(  748) = (  -0.4375000  -0.8125000   0.1875000), wk =   0.0019531
        k(  749) = (   0.4375000   0.8125000   0.1875000), wk =   0.0019531
        k(  750) = (   0.4375000  -0.8125000  -0.1875000), wk =   0.0019531
        k(  751) = (  -0.1875000   0.8125000   0.4375000), wk =   0.0019531
        k(  752) = (   0.1875000   0.8125000  -0.4375000), wk =   0.0019531
        k(  753) = (  -0.1875000  -0.8125000  -0.4375000), wk =   0.0019531
        k(  754) = (   0.1875000  -0.8125000   0.4375000), wk =   0.0019531
        k(  755) = (   0.8125000   0.4375000  -0.1875000), wk =   0.0019531
        k(  756) = (   0.8125000  -0.4375000   0.1875000), wk =   0.0019531
        k(  757) = (  -0.8125000  -0.4375000  -0.1875000), wk =   0.0019531
        k(  758) = (  -0.8125000   0.4375000   0.1875000), wk =   0.0019531
        k(  759) = (  -0.3125000   0.0625000   0.6875000), wk =   0.0019531
        k(  760) = (  -0.3125000  -0.0625000  -0.6875000), wk =   0.0019531
        k(  761) = (   0.3125000   0.0625000  -0.6875000), wk =   0.0019531
        k(  762) = (  -0.0625000   0.3125000  -0.6875000), wk =   0.0019531
        k(  763) = (   0.0625000  -0.3125000  -0.6875000), wk =   0.0019531
        k(  764) = (  -0.0625000  -0.3125000   0.6875000), wk =   0.0019531
        k(  765) = (   0.0625000   0.3125000   0.6875000), wk =   0.0019531
        k(  766) = (   0.6875000   0.0625000   0.3125000), wk =   0.0019531
        k(  767) = (  -0.6875000   0.0625000  -0.3125000), wk =   0.0019531
        k(  768) = (   0.6875000  -0.0625000  -0.3125000), wk =   0.0019531
        k(  769) = (  -0.6875000  -0.0625000   0.3125000), wk =   0.0019531
        k(  770) = (  -0.3125000   0.6875000  -0.0625000), wk =   0.0019531
        k(  771) = (  -0.3125000  -0.6875000   0.0625000), wk =   0.0019531
        k(  772) = (   0.3125000   0.6875000   0.0625000), wk =   0.0019531
        k(  773) = (   0.3125000  -0.6875000  -0.0625000), wk =   0.0019531
        k(  774) = (  -0.0625000   0.6875000   0.3125000), wk =   0.0019531
        k(  775) = (   0.0625000   0.6875000  -0.3125000), wk =   0.0019531
        k(  776) = (  -0.0625000  -0.6875000  -0.3125000), wk =   0.0019531
        k(  777) = (   0.0625000  -0.6875000   0.3125000), wk =   0.0019531
        k(  778) = (   0.6875000   0.3125000  -0.0625000), wk =   0.0019531
        k(  779) = (   0.6875000  -0.3125000   0.0625000), wk =   0.0019531
        k(  780) = (  -0.6875000  -0.3125000  -0.0625000), wk =   0.0019531
        k(  781) = (  -0.6875000   0.3125000   0.0625000), wk =   0.0019531
        k(  782) = (   0.1875000  -0.6875000   0.1875000), wk =   0.0019531
        k(  783) = (   0.1875000   0.6875000  -0.1875000), wk =   0.0019531
        k(  784) = (  -0.1875000  -0.6875000  -0.1875000), wk =   0.0019531
        k(  785) = (   0.6875000  -0.1875000  -0.1875000), wk =   0.0019531
        k(  786) = (  -0.6875000   0.1875000  -0.1875000), wk =   0.0019531
        k(  787) = (   0.6875000   0.1875000   0.1875000), wk =   0.0019531
        k(  788) = (  -0.6875000  -0.1875000   0.1875000), wk =   0.0019531
        k(  789) = (   0.1875000   0.1875000   0.6875000), wk =   0.0019531
        k(  790) = (   0.1875000  -0.1875000  -0.6875000), wk =   0.0019531
        k(  791) = (  -0.1875000   0.1875000  -0.6875000), wk =   0.0019531
        k(  792) = (  -0.1875000  -0.1875000   0.6875000), wk =   0.0019531
        k(  793) = (  -0.6875000   0.1875000   1.0625000), wk =   0.0019531
        k(  794) = (  -0.6875000  -0.1875000  -1.0625000), wk =   0.0019531
        k(  795) = (   0.6875000   0.1875000  -1.0625000), wk =   0.0019531
        k(  796) = (  -0.1875000   0.6875000  -1.0625000), wk =   0.0019531
        k(  797) = (   0.1875000  -0.6875000  -1.0625000), wk =   0.0019531
        k(  798) = (  -0.1875000  -0.6875000   1.0625000), wk =   0.0019531
        k(  799) = (   0.1875000   0.6875000   1.0625000), wk =   0.0019531
        k(  800) = (   1.0625000   0.1875000   0.6875000), wk =   0.0019531
        k(  801) = (  -1.0625000   0.1875000  -0.6875000), wk =   0.0019531
        k(  802) = (   1.0625000  -0.1875000  -0.6875000), wk =   0.0019531
        k(  803) = (  -1.0625000  -0.1875000   0.6875000), wk =   0.0019531
        k(  804) = (  -0.6875000   1.0625000  -0.1875000), wk =   0.0019531
        k(  805) = (  -0.6875000  -1.0625000   0.1875000), wk =   0.0019531
        k(  806) = (   0.6875000   1.0625000   0.1875000), wk =   0.0019531
        k(  807) = (   0.6875000  -1.0625000  -0.1875000), wk =   0.0019531
        k(  808) = (  -0.1875000   1.0625000   0.6875000), wk =   0.0019531
        k(  809) = (   0.1875000   1.0625000  -0.6875000), wk =   0.0019531
        k(  810) = (  -0.1875000  -1.0625000  -0.6875000), wk =   0.0019531
        k(  811) = (   0.1875000  -1.0625000   0.6875000), wk =   0.0019531
        k(  812) = (   1.0625000   0.6875000  -0.1875000), wk =   0.0019531
        k(  813) = (   1.0625000  -0.6875000   0.1875000), wk =   0.0019531
        k(  814) = (  -1.0625000  -0.6875000  -0.1875000), wk =   0.0019531
        k(  815) = (  -1.0625000   0.6875000   0.1875000), wk =   0.0019531
        k(  816) = (  -0.5625000   0.0625000   0.9375000), wk =   0.0019531
        k(  817) = (  -0.5625000  -0.0625000  -0.9375000), wk =   0.0019531
        k(  818) = (   0.5625000   0.0625000  -0.9375000), wk =   0.0019531
        k(  819) = (  -0.0625000   0.5625000  -0.9375000), wk =   0.0019531
        k(  820) = (   0.0625000  -0.5625000  -0.9375000), wk =   0.0019531
        k(  821) = (  -0.0625000  -0.5625000   0.9375000), wk =   0.0019531
        k(  822) = (   0.0625000   0.5625000   0.9375000), wk =   0.0019531
        k(  823) = (   0.9375000   0.0625000   0.5625000), wk =   0.0019531
        k(  824) = (  -0.9375000   0.0625000  -0.5625000), wk =   0.0019531
        k(  825) = (   0.9375000  -0.0625000  -0.5625000), wk =   0.0019531
        k(  826) = (  -0.9375000  -0.0625000   0.5625000), wk =   0.0019531
        k(  827) = (  -0.5625000   0.9375000  -0.0625000), wk =   0.0019531
        k(  828) = (  -0.5625000  -0.9375000   0.0625000), wk =   0.0019531
        k(  829) = (   0.5625000   0.9375000   0.0625000), wk =   0.0019531
        k(  830) = (   0.5625000  -0.9375000  -0.0625000), wk =   0.0019531
        k(  831) = (  -0.0625000   0.9375000   0.5625000), wk =   0.0019531
        k(  832) = (   0.0625000   0.9375000  -0.5625000), wk =   0.0019531
        k(  833) = (  -0.0625000  -0.9375000  -0.5625000), wk =   0.0019531
        k(  834) = (   0.0625000  -0.9375000   0.5625000), wk =   0.0019531
        k(  835) = (   0.9375000   0.5625000  -0.0625000), wk =   0.0019531
        k(  836) = (   0.9375000  -0.5625000   0.0625000), wk =   0.0019531
        k(  837) = (  -0.9375000  -0.5625000  -0.0625000), wk =   0.0019531
        k(  838) = (  -0.9375000   0.5625000   0.0625000), wk =   0.0019531
        k(  839) = (  -0.4375000  -0.0625000   0.8125000), wk =   0.0019531
        k(  840) = (  -0.4375000   0.0625000  -0.8125000), wk =   0.0019531
        k(  841) = (   0.4375000  -0.0625000  -0.8125000), wk =   0.0019531
        k(  842) = (   0.0625000   0.4375000  -0.8125000), wk =   0.0019531
        k(  843) = (  -0.0625000  -0.4375000  -0.8125000), wk =   0.0019531
        k(  844) = (   0.0625000  -0.4375000   0.8125000), wk =   0.0019531
        k(  845) = (  -0.0625000   0.4375000   0.8125000), wk =   0.0019531
        k(  846) = (   0.8125000  -0.0625000   0.4375000), wk =   0.0019531
        k(  847) = (  -0.8125000  -0.0625000  -0.4375000), wk =   0.0019531
        k(  848) = (   0.8125000   0.0625000  -0.4375000), wk =   0.0019531
        k(  849) = (  -0.8125000   0.0625000   0.4375000), wk =   0.0019531
        k(  850) = (  -0.4375000   0.8125000   0.0625000), wk =   0.0019531
        k(  851) = (  -0.4375000  -0.8125000  -0.0625000), wk =   0.0019531
        k(  852) = (   0.4375000   0.8125000  -0.0625000), wk =   0.0019531
        k(  853) = (   0.4375000  -0.8125000   0.0625000), wk =   0.0019531
        k(  854) = (   0.0625000   0.8125000   0.4375000), wk =   0.0019531
        k(  855) = (  -0.0625000   0.8125000  -0.4375000), wk =   0.0019531
        k(  856) = (   0.0625000  -0.8125000  -0.4375000), wk =   0.0019531
        k(  857) = (  -0.0625000  -0.8125000   0.4375000), wk =   0.0019531
        k(  858) = (   0.8125000   0.4375000   0.0625000), wk =   0.0019531
        k(  859) = (   0.8125000  -0.4375000  -0.0625000), wk =   0.0019531
        k(  860) = (  -0.8125000  -0.4375000   0.0625000), wk =   0.0019531
        k(  861) = (  -0.8125000   0.4375000  -0.0625000), wk =   0.0019531
        k(  862) = (   0.1875000   1.0625000   0.1875000), wk =   0.0019531
        k(  863) = (   0.1875000  -1.0625000  -0.1875000), wk =   0.0019531
        k(  864) = (  -0.1875000   1.0625000  -0.1875000), wk =   0.0019531
        k(  865) = (  -1.0625000  -0.1875000  -0.1875000), wk =   0.0019531
        k(  866) = (   1.0625000   0.1875000  -0.1875000), wk =   0.0019531
        k(  867) = (  -1.0625000   0.1875000   0.1875000), wk =   0.0019531
        k(  868) = (   1.0625000  -0.1875000   0.1875000), wk =   0.0019531
        k(  869) = (   0.1875000   0.1875000  -1.0625000), wk =   0.0019531
        k(  870) = (   0.1875000  -0.1875000   1.0625000), wk =   0.0019531
        k(  871) = (  -0.1875000   0.1875000   1.0625000), wk =   0.0019531
        k(  872) = (  -0.1875000  -0.1875000  -1.0625000), wk =   0.0019531
        k(  873) = (   0.3125000   0.9375000   0.0625000), wk =   0.0019531
        k(  874) = (   0.3125000  -0.9375000  -0.0625000), wk =   0.0019531
        k(  875) = (  -0.3125000   0.9375000  -0.0625000), wk =   0.0019531
        k(  876) = (  -0.9375000  -0.3125000  -0.0625000), wk =   0.0019531
        k(  877) = (   0.9375000   0.3125000  -0.0625000), wk =   0.0019531
        k(  878) = (  -0.9375000   0.3125000   0.0625000), wk =   0.0019531
        k(  879) = (   0.9375000  -0.3125000   0.0625000), wk =   0.0019531
        k(  880) = (   0.0625000   0.9375000  -0.3125000), wk =   0.0019531
        k(  881) = (  -0.0625000   0.9375000   0.3125000), wk =   0.0019531
        k(  882) = (   0.0625000  -0.9375000   0.3125000), wk =   0.0019531
        k(  883) = (  -0.0625000  -0.9375000  -0.3125000), wk =   0.0019531
        k(  884) = (   0.3125000   0.0625000  -0.9375000), wk =   0.0019531
        k(  885) = (   0.3125000  -0.0625000   0.9375000), wk =   0.0019531
        k(  886) = (  -0.3125000   0.0625000   0.9375000), wk =   0.0019531
        k(  887) = (  -0.3125000  -0.0625000  -0.9375000), wk =   0.0019531
        k(  888) = (  -0.9375000   0.0625000  -0.3125000), wk =   0.0019531
        k(  889) = (   0.9375000   0.0625000   0.3125000), wk =   0.0019531
        k(  890) = (  -0.9375000  -0.0625000   0.3125000), wk =   0.0019531
        k(  891) = (   0.9375000  -0.0625000  -0.3125000), wk =   0.0019531
        k(  892) = (   0.0625000  -0.3125000  -0.9375000), wk =   0.0019531
        k(  893) = (   0.0625000   0.3125000   0.9375000), wk =   0.0019531
        k(  894) = (  -0.0625000   0.3125000  -0.9375000), wk =   0.0019531
        k(  895) = (  -0.0625000  -0.3125000   0.9375000), wk =   0.0019531
        k(  896) = (   0.1875000   0.8125000   0.1875000), wk =   0.0019531
        k(  897) = (   0.1875000  -0.8125000  -0.1875000), wk =   0.0019531
        k(  898) = (  -0.1875000   0.8125000  -0.1875000), wk =   0.0019531
        k(  899) = (  -0.8125000  -0.1875000  -0.1875000), wk =   0.0019531
        k(  900) = (   0.8125000   0.1875000  -0.1875000), wk =   0.0019531
        k(  901) = (  -0.8125000   0.1875000   0.1875000), wk =   0.0019531
        k(  902) = (   0.8125000  -0.1875000   0.1875000), wk =   0.0019531
        k(  903) = (   0.1875000   0.1875000  -0.8125000), wk =   0.0019531
        k(  904) = (   0.1875000  -0.1875000   0.8125000), wk =   0.0019531
        k(  905) = (  -0.1875000   0.1875000   0.8125000), wk =   0.0019531
        k(  906) = (  -0.1875000  -0.1875000  -0.8125000), wk =   0.0019531
        k(  907) = (   0.3125000  -0.3125000   0.3125000), wk =   0.0019531
        k(  908) = (   0.3125000   0.3125000  -0.3125000), wk =   0.0019531
        k(  909) = (  -0.3125000  -0.3125000  -0.3125000), wk =   0.0019531
        k(  910) = (   0.4375000  -0.4375000   0.1875000), wk =   0.0019531
        k(  911) = (   0.4375000   0.4375000  -0.1875000), wk =   0.0019531
        k(  912) = (  -0.4375000  -0.4375000  -0.1875000), wk =   0.0019531
        k(  913) = (   0.1875000  -0.4375000  -0.4375000), wk =   0.0019531
        k(  914) = (  -0.1875000  -0.4375000   0.4375000), wk =   0.0019531
        k(  915) = (   0.1875000   0.4375000   0.4375000), wk =   0.0019531
        k(  916) = (  -0.1875000   0.4375000  -0.4375000), wk =   0.0019531
        k(  917) = (   0.4375000   0.1875000   0.4375000), wk =   0.0019531
        k(  918) = (   0.4375000  -0.1875000  -0.4375000), wk =   0.0019531
        k(  919) = (  -0.4375000   0.1875000  -0.4375000), wk =   0.0019531
        k(  920) = (  -0.4375000  -0.1875000   0.4375000), wk =   0.0019531
        k(  921) = (  -0.4375000   0.4375000   1.0625000), wk =   0.0019531
        k(  922) = (  -0.4375000  -0.4375000  -1.0625000), wk =   0.0019531
        k(  923) = (   0.4375000   0.4375000  -1.0625000), wk =   0.0019531
        k(  924) = (   1.0625000   0.4375000   0.4375000), wk =   0.0019531
        k(  925) = (  -1.0625000   0.4375000  -0.4375000), wk =   0.0019531
        k(  926) = (   1.0625000  -0.4375000  -0.4375000), wk =   0.0019531
        k(  927) = (  -1.0625000  -0.4375000   0.4375000), wk =   0.0019531
        k(  928) = (  -0.4375000   1.0625000  -0.4375000), wk =   0.0019531
        k(  929) = (  -0.4375000  -1.0625000   0.4375000), wk =   0.0019531
        k(  930) = (   0.4375000   1.0625000   0.4375000), wk =   0.0019531
        k(  931) = (   0.4375000  -1.0625000  -0.4375000), wk =   0.0019531
        k(  932) = (  -0.3125000   0.3125000   0.9375000), wk =   0.0019531
        k(  933) = (  -0.3125000  -0.3125000  -0.9375000), wk =   0.0019531
        k(  934) = (   0.3125000   0.3125000  -0.9375000), wk =   0.0019531
        k(  935) = (   0.9375000   0.3125000   0.3125000), wk =   0.0019531
        k(  936) = (  -0.9375000   0.3125000  -0.3125000), wk =   0.0019531
        k(  937) = (   0.9375000  -0.3125000  -0.3125000), wk =   0.0019531
        k(  938) = (  -0.9375000  -0.3125000   0.3125000), wk =   0.0019531
        k(  939) = (  -0.3125000   0.9375000  -0.3125000), wk =   0.0019531
        k(  940) = (  -0.3125000  -0.9375000   0.3125000), wk =   0.0019531
        k(  941) = (   0.3125000   0.9375000   0.3125000), wk =   0.0019531
        k(  942) = (   0.3125000  -0.9375000  -0.3125000), wk =   0.0019531
        k(  943) = (   0.3125000  -0.5625000   0.3125000), wk =   0.0019531
        k(  944) = (   0.3125000   0.5625000  -0.3125000), wk =   0.0019531
        k(  945) = (  -0.3125000  -0.5625000  -0.3125000), wk =   0.0019531
        k(  946) = (   0.5625000  -0.3125000  -0.3125000), wk =   0.0019531
        k(  947) = (  -0.5625000   0.3125000  -0.3125000), wk =   0.0019531
        k(  948) = (   0.5625000   0.3125000   0.3125000), wk =   0.0019531
        k(  949) = (  -0.5625000  -0.3125000   0.3125000), wk =   0.0019531
        k(  950) = (   0.3125000   0.3125000   0.5625000), wk =   0.0019531
        k(  951) = (   0.3125000  -0.3125000  -0.5625000), wk =   0.0019531
        k(  952) = (  -0.3125000   0.3125000  -0.5625000), wk =   0.0019531
        k(  953) = (  -0.3125000  -0.3125000   0.5625000), wk =   0.0019531
        k(  954) = (  -0.5625000   0.3125000   1.1875000), wk =   0.0019531
        k(  955) = (  -0.5625000  -0.3125000  -1.1875000), wk =   0.0019531
        k(  956) = (   0.5625000   0.3125000  -1.1875000), wk =   0.0019531
        k(  957) = (  -0.3125000   0.5625000  -1.1875000), wk =   0.0019531
        k(  958) = (   0.3125000  -0.5625000  -1.1875000), wk =   0.0019531
        k(  959) = (  -0.3125000  -0.5625000   1.1875000), wk =   0.0019531
        k(  960) = (   0.3125000   0.5625000   1.1875000), wk =   0.0019531
        k(  961) = (   1.1875000   0.3125000   0.5625000), wk =   0.0019531
        k(  962) = (  -1.1875000   0.3125000  -0.5625000), wk =   0.0019531
        k(  963) = (   1.1875000  -0.3125000  -0.5625000), wk =   0.0019531
        k(  964) = (  -1.1875000  -0.3125000   0.5625000), wk =   0.0019531
        k(  965) = (  -0.5625000   1.1875000  -0.3125000), wk =   0.0019531
        k(  966) = (  -0.5625000  -1.1875000   0.3125000), wk =   0.0019531
        k(  967) = (   0.5625000   1.1875000   0.3125000), wk =   0.0019531
        k(  968) = (   0.5625000  -1.1875000  -0.3125000), wk =   0.0019531
        k(  969) = (  -0.3125000   1.1875000   0.5625000), wk =   0.0019531
        k(  970) = (   0.3125000   1.1875000  -0.5625000), wk =   0.0019531
        k(  971) = (  -0.3125000  -1.1875000  -0.5625000), wk =   0.0019531
        k(  972) = (   0.3125000  -1.1875000   0.5625000), wk =   0.0019531
        k(  973) = (   1.1875000   0.5625000  -0.3125000), wk =   0.0019531
        k(  974) = (   1.1875000  -0.5625000   0.3125000), wk =   0.0019531
        k(  975) = (  -1.1875000  -0.5625000  -0.3125000), wk =   0.0019531
        k(  976) = (  -1.1875000   0.5625000   0.3125000), wk =   0.0019531
        k(  977) = (  -0.4375000   0.1875000   1.0625000), wk =   0.0019531
        k(  978) = (  -0.4375000  -0.1875000  -1.0625000), wk =   0.0019531
        k(  979) = (   0.4375000   0.1875000  -1.0625000), wk =   0.0019531
        k(  980) = (  -0.1875000   0.4375000  -1.0625000), wk =   0.0019531
        k(  981) = (   0.1875000  -0.4375000  -1.0625000), wk =   0.0019531
        k(  982) = (  -0.1875000  -0.4375000   1.0625000), wk =   0.0019531
        k(  983) = (   0.1875000   0.4375000   1.0625000), wk =   0.0019531
        k(  984) = (   1.0625000   0.1875000   0.4375000), wk =   0.0019531
        k(  985) = (  -1.0625000   0.1875000  -0.4375000), wk =   0.0019531
        k(  986) = (   1.0625000  -0.1875000  -0.4375000), wk =   0.0019531
        k(  987) = (  -1.0625000  -0.1875000   0.4375000), wk =   0.0019531
        k(  988) = (  -0.4375000   1.0625000  -0.1875000), wk =   0.0019531
        k(  989) = (  -0.4375000  -1.0625000   0.1875000), wk =   0.0019531
        k(  990) = (   0.4375000   1.0625000   0.1875000), wk =   0.0019531
[...]
     1.0000   1.0000   1.0000   1.0000

          k = 0.3125 0.9375 0.3125 (   400 PWs)   bands (ev):

    -2.2793  -0.5403   1.9679   4.1777

     occupation numbers 
     1.0000   1.0000   1.0000   1.0000

          k = 0.3125-0.9375-0.3125 (   400 PWs)   bands (ev):

    -2.2793  -0.5403   1.9680   4.1777

     occupation numbers 
     1.0000   1.0000   1.0000   1.0000

          k = 0.3125-0.5625 0.3125 (   401 PWs)   bands (ev):

    -3.6256   0.1843   4.2907   4.7621

     occupation numbers 
     1.0000   1.0000   1.0000   1.0000

          k = 0.3125 0.5625-0.3125 (   401 PWs)   bands (ev):

    -3.6257   0.1846   4.2905   4.7620

     occupation numbers 
     1.0000   1.0000   1.0000   1.0000

          k =-0.3125-0.5625-0.3125 (   401 PWs)   bands (ev):

    -3.6257   0.1845   4.2904   4.7621

     occupation numbers 
     1.0000   1.0000   1.0000   1.0000

          k = 0.5625-0.3125-0.3125 (   401 PWs)   bands (ev):

    -3.6256   0.1843   4.2906   4.7620

     occupation numbers 
     1.0000   1.0000   1.0000   1.0000

          k =-0.5625 0.3125-0.3125 (   401 PWs)   bands (ev):

    -3.6256   0.1843   4.2907   4.7620

     occupation numbers 
     1.0000   1.0000   1.0000   1.0000

          k = 0.5625 0.3125 0.3125 (   401 PWs)   bands (ev):

    -3.6257   0.1845   4.2905   4.7621

     occupation numbers 
     1.0000   1.0000   1.0000   1.0000

          k =-0.5625-0.3125 0.3125 (   401 PWs)   bands (ev):

    -3.6257   0.1846   4.2904   4.7621

     occupation numbers 
     1.0000   1.0000   1.0000   1.0000

          k = 0.3125 0.3125 0.5625 (   401 PWs)   bands (ev):

    -3.6257   0.1845   4.2907   4.7619

     occupation numbers 
     1.0000   1.0000   1.0000   1.0000

          k = 0.3125-0.3125-0.5625 (   401 PWs)   bands (ev):

    -3.6256   0.1843   4.2904   4.7622

     occupation numbers 
     1.0000   1.0000   1.0000   1.0000

          k =-0.3125 0.3125-0.5625 (   401 PWs)   bands (ev):

    -3.6256   0.1843   4.2905   4.7622

     occupation numbers 
     1.0000   1.0000   1.0000   1.0000

          k =-0.3125-0.3125 0.5625 (   401 PWs)   bands (ev):

    -3.6257   0.1845   4.2906   4.7619

     occupation numbers 
     1.0000   1.0000   1.0000   1.0000

          k =-0.5625 0.3125 1.1875 (   403 PWs)   bands (ev):

    -2.9832  -0.1649   2.9249   4.2615

     occupation numbers 
     1.0000   1.0000   1.0000   1.0000

          k =-0.5625-0.3125-1.1875 (   403 PWs)   bands (ev):

    -2.9834  -0.1645   2.9250   4.2612

     occupation numbers 
     1.0000   1.0000   1.0000   1.0000

          k = 0.5625 0.3125-1.1875 (   403 PWs)   bands (ev):

    -2.9834  -0.1646   2.9250   4.2613

     occupation numbers 
     1.0000   1.0000   1.0000   1.0000

          k =-0.3125 0.5625-1.1875 (   403 PWs)   bands (ev):

    -2.9833  -0.1648   2.9249   4.2616

     occupation numbers 
     1.0000   1.0000   1.0000   1.0000

          k = 0.3125-0.5625-1.1875 (   403 PWs)   bands (ev):

    -2.9832  -0.1649   2.9250   4.2615

     occupation numbers 
     1.0000   1.0000   1.0000   1.0000

          k =-0.3125-0.5625 1.1875 (   403 PWs)   bands (ev):

    -2.9834  -0.1646   2.9250   4.2613

     occupation numbers 
     1.0000   1.0000   1.0000   1.0000

          k = 0.3125 0.5625 1.1875 (   403 PWs)   bands (ev):

    -2.9834  -0.1645   2.9249   4.2613

     occupation numbers 
     1.0000   1.0000   1.0000   1.0000

          k = 1.1875 0.3125 0.5625 (   403 PWs)   bands (ev):

    -2.9833  -0.1648   2.9251   4.2613

     occupation numbers 
     1.0000   1.0000   1.0000   1.0000

          k =-1.1875 0.3125-0.5625 (   403 PWs)   bands (ev):

    -2.9834  -0.1646   2.9248   4.2614

     occupation numbers 
     1.0000   1.0000   1.0000   1.0000

          k = 1.1875-0.3125-0.5625 (   403 PWs)   bands (ev):

    -2.9833  -0.1646   2.9248   4.2615

     occupation numbers 
     1.0000   1.0000   1.0000   1.0000

          k =-1.1875-0.3125 0.5625 (   403 PWs)   bands (ev):

    -2.9833  -0.1649   2.9251   4.2613

     occupation numbers 
     1.0000   1.0000   1.0000   1.0000

          k =-0.5625 1.1875-0.3125 (   403 PWs)   bands (ev):

    -2.9833  -0.1647   2.9250   4.2613

     occupation numbers 
     1.0000   1.0000   1.0000   1.0000

          k =-0.5625-1.1875 0.3125 (   403 PWs)   bands (ev):

    -2.9833  -0.1648   2.9250   4.2614

     occupation numbers 
     1.0000   1.0000   1.0000   1.0000

          k = 0.5625 1.1875 0.3125 (   403 PWs)   bands (ev):

    -2.9833  -0.1649   2.9250   4.2615

     occupation numbers 
     1.0000   1.0000   1.0000   1.0000

          k = 0.5625-1.1875-0.3125 (   403 PWs)   bands (ev):

    -2.9834  -0.1646   2.9250   4.2613

     occupation numbers 
     1.0000   1.0000   1.0000   1.0000

          k =-0.3125 1.1875 0.5625 (   403 PWs)   bands (ev):

    -2.9834  -0.1646   2.9248   4.2614

     occupation numbers 
     1.0000   1.0000   1.0000   1.0000

          k = 0.3125 1.1875-0.5625 (   403 PWs)   bands (ev):

    -2.9833  -0.1648   2.9251   4.2613

     occupation numbers 
     1.0000   1.0000   1.0000   1.0000

          k =-0.3125-1.1875-0.5625 (   403 PWs)   bands (ev):

    -2.9833  -0.1649   2.9251   4.2613

     occupation numbers 
     1.0000   1.0000   1.0000   1.0000

          k = 0.3125-1.1875 0.5625 (   403 PWs)   bands (ev):

    -2.9833  -0.1646   2.9248   4.2615

     occupation numbers 
     1.0000   1.0000   1.0000   1.0000

          k = 1.1875 0.5625-0.3125 (   403 PWs)   bands (ev):

    -2.9833  -0.1648   2.9250   4.2615

     occupation numbers 
     1.0000   1.0000   1.0000   1.0000

          k = 1.1875-0.5625 0.3125 (   403 PWs)   bands (ev):

    -2.9834  -0.1646   2.9249   4.2613

     occupation numbers 
     1.0000   1.0000   1.0000   1.0000

          k =-1.1875-0.5625-0.3125 (   403 PWs)   bands (ev):

    -2.9833  -0.1648   2.9249   4.2615

     occupation numbers 
     1.0000   1.0000   1.0000   1.0000

          k =-1.1875 0.5625 0.3125 (   403 PWs)   bands (ev):

    -2.9833  -0.1646   2.9250   4.2613

     occupation numbers 
     1.0000   1.0000   1.0000   1.0000

          k =-0.4375 0.1875 1.0625 (   398 PWs)   bands (ev):

    -2.1378  -0.5995   2.0626   3.5180

     occupation numbers 
     1.0000   1.0000   1.0000   1.0000

          k =-0.4375-0.1875-1.0625 (   398 PWs)   bands (ev):

    -2.1380  -0.5991   2.0626   3.5178

     occupation numbers 
     1.0000   1.0000   1.0000   1.0000

          k = 0.4375 0.1875-1.0625 (   398 PWs)   bands (ev):

    -2.1380  -0.5991   2.0626   3.5178

     occupation numbers 
     1.0000   1.0000   1.0000   1.0000

          k =-0.1875 0.4375-1.0625 (   398 PWs)   bands (ev):

    -2.1378  -0.5994   2.0625   3.5180

     occupation numbers 
     1.0000   1.0000   1.0000   1.0000

          k = 0.1875-0.4375-1.0625 (   398 PWs)   bands (ev):

    -2.1378  -0.5995   2.0626   3.5180

     occupation numbers 
     1.0000   1.0000   1.0000   1.0000

          k =-0.1875-0.4375 1.0625 (   398 PWs)   bands (ev):

    -2.1380  -0.5991   2.0627   3.5178

     occupation numbers 
     1.0000   1.0000   1.0000   1.0000

          k = 0.1875 0.4375 1.0625 (   398 PWs)   bands (ev):

    -2.1380  -0.5991   2.0626   3.5178

     occupation numbers 
     1.0000   1.0000   1.0000   1.0000

          k = 1.0625 0.1875 0.4375 (   398 PWs)   bands (ev):

    -2.1379  -0.5993   2.0626   3.5179

     occupation numbers 
     1.0000   1.0000   1.0000   1.0000

          k =-1.0625 0.1875-0.4375 (   398 PWs)   bands (ev):

    -2.1379  -0.5992   2.0625   3.5179

     occupation numbers 
     1.0000   1.0000   1.0000   1.0000

          k = 1.0625-0.1875-0.4375 (   398 PWs)   bands (ev):

    -2.1379  -0.5992   2.0625   3.5179

     occupation numbers 
     1.0000   1.0000   1.0000   1.0000

          k =-1.0625-0.1875 0.4375 (   398 PWs)   bands (ev):

    -2.1378  -0.5993   2.0626   3.5179

     occupation numbers 
     1.0000   1.0000   1.0000   1.0000

          k =-0.4375 1.0625-0.1875 (   398 PWs)   bands (ev):

    -2.1379  -0.5992   2.0626   3.5179

     occupation numbers 
     1.0000   1.0000   1.0000   1.0000

          k =-0.4375-1.0625 0.1875 (   398 PWs)   bands (ev):

    -2.1379  -0.5993   2.0626   3.5179

     occupation numbers 
     1.0000   1.0000   1.0000   1.0000

          k = 0.4375 1.0625 0.1875 (   398 PWs)   bands (ev):

    -2.1378  -0.5994   2.0626   3.5179

     occupation numbers 
     1.0000   1.0000   1.0000   1.0000

          k = 0.4375-1.0625-0.1875 (   398 PWs)   bands (ev):

    -2.1379  -0.5991   2.0626   3.5178

     occupation numbers 
     1.0000   1.0000   1.0000   1.0000

          k =-0.1875 1.0625 0.4375 (   398 PWs)   bands (ev):

    -2.1379  -0.5992   2.0626   3.5179

     occupation numbers 
     1.0000   1.0000   1.0000   1.0000

          k = 0.1875 1.0625-0.4375 (   398 PWs)   bands (ev):

    -2.1379  -0.5993   2.0627   3.5178

     occupation numbers 
     1.0000   1.0000   1.0000   1.0000

          k =-0.1875-1.0625-0.4375 (   398 PWs)   bands (ev):

    -2.1378  -0.5994   2.0626   3.5179

     occupation numbers 
     1.0000   1.0000   1.0000   1.0000

          k = 0.1875-1.0625 0.4375 (   398 PWs)   bands (ev):

    -2.1379  -0.5993   2.0625   3.5179

     occupation numbers 
     1.0000   1.0000   1.0000   1.0000

          k = 1.0625 0.4375-0.1875 (   398 PWs)   bands (ev):

    -2.1378  -0.5994   2.0626   3.5179

     occupation numbers 
     1.0000   1.0000   1.0000   1.0000

          k = 1.0625-0.4375 0.1875 (   398 PWs)   bands (ev):

    -2.1379  -0.5992   2.0626   3.5179

     occupation numbers 
     1.0000   1.0000   1.0000   1.0000

          k =-1.0625-0.4375-0.1875 (   398 PWs)   bands (ev):

    -2.1378  -0.5993   2.0626   3.5179

     occupation numbers 
     1.0000   1.0000   1.0000   1.0000

          k =-1.0625 0.4375 0.1875 (   398 PWs)   bands (ev):

    -2.1379  -0.5992   2.0626   3.5179

     occupation numbers 
     1.0000   1.0000   1.0000   1.0000

          k = 0.3125 1.1875 0.3125 (   400 PWs)   bands (ev):

    -2.6102  -0.4438   2.5063   4.2812

     occupation numbers 
     1.0000   1.0000   1.0000   1.0000

          k = 0.3125-1.1875-0.3125 (   400 PWs)   bands (ev):

    -2.6103  -0.4435   2.5061   4.2811

     occupation numbers 
     1.0000   1.0000   1.0000   1.0000

          k =-0.3125 1.1875-0.3125 (   400 PWs)   bands (ev):

    -2.6103  -0.4435   2.5061   4.2812

     occupation numbers 
     1.0000   1.0000   1.0000   1.0000

          k =-1.1875-0.3125-0.3125 (   400 PWs)   bands (ev):

    -2.6102  -0.4437   2.5063   4.2812

     occupation numbers 
     1.0000   1.0000   1.0000   1.0000

          k = 1.1875 0.3125-0.3125 (   400 PWs)   bands (ev):

    -2.6102  -0.4438   2.5063   4.2812

     occupation numbers 
     1.0000   1.0000   1.0000   1.0000

          k =-1.1875 0.3125 0.3125 (   400 PWs)   bands (ev):

    -2.6103  -0.4435   2.5061   4.2812

     occupation numbers 
     1.0000   1.0000   1.0000   1.0000

          k = 1.1875-0.3125 0.3125 (   400 PWs)   bands (ev):

    -2.6103  -0.4435   2.5061   4.2812

     occupation numbers 
     1.0000   1.0000   1.0000   1.0000

          k = 0.3125 0.3125-1.1875 (   400 PWs)   bands (ev):

    -2.6103  -0.4435   2.5063   4.2810

     occupation numbers 
     1.0000   1.0000   1.0000   1.0000

          k = 0.3125-0.3125 1.1875 (   400 PWs)   bands (ev):

    -2.6102  -0.4437   2.5061   4.2813

     occupation numbers 
     1.0000   1.0000   1.0000   1.0000

          k =-0.3125 0.3125 1.1875 (   400 PWs)   bands (ev):

    -2.6101  -0.4438   2.5062   4.2813

     occupation numbers 
     1.0000   1.0000   1.0000   1.0000

          k =-0.3125-0.3125-1.1875 (   400 PWs)   bands (ev):

    -2.6103  -0.4435   2.5062   4.2810

     occupation numbers 
     1.0000   1.0000   1.0000   1.0000

          k = 0.4375-0.4375 0.4375 (   401 PWs)   bands (ev):

    -3.5215  -0.3547   5.2134   5.2137

     occupation numbers 
     1.0000   1.0000   1.0000   1.0000

          k = 0.4375 0.4375-0.4375 (   401 PWs)   bands (ev):

    -3.5217  -0.3544   5.2133   5.2135

     occupation numbers 
     1.0000   1.0000   1.0000   1.0000

          k =-0.4375-0.4375-0.4375 (   401 PWs)   bands (ev):

    -3.5216  -0.3545   5.2133   5.2136

     occupation numbers 
     1.0000   1.0000   1.0000   1.0000

          k =-0.4375 0.4375 1.3125 (   399 PWs)   bands (ev):

    -3.1561  -0.5302   3.9602   4.9330

     occupation numbers 
     1.0000   1.0000   1.0000   1.0000

          k =-0.4375-0.4375-1.3125 (   399 PWs)   bands (ev):

    -3.1562  -0.5298   3.9602   4.9326

     occupation numbers 
     1.0000   1.0000   1.0000   1.0000

          k = 0.4375 0.4375-1.3125 (   399 PWs)   bands (ev):

    -3.1562  -0.5299   3.9603   4.9326

     occupation numbers 
     1.0000   1.0000   1.0000   1.0000

          k = 1.3125 0.4375 0.4375 (   399 PWs)   bands (ev):

    -3.1561  -0.5301   3.9603   4.9328

     occupation numbers 
     1.0000   1.0000   1.0000   1.0000

          k =-1.3125 0.4375-0.4375 (   399 PWs)   bands (ev):

    -3.1562  -0.5298   3.9601   4.9328

     occupation numbers 
     1.0000   1.0000   1.0000   1.0000

          k = 1.3125-0.4375-0.4375 (   399 PWs)   bands (ev):

    -3.1562  -0.5299   3.9601   4.9328

     occupation numbers 
     1.0000   1.0000   1.0000   1.0000

          k =-1.3125-0.4375 0.4375 (   399 PWs)   bands (ev):

    -3.1561  -0.5302   3.9603   4.9327

     occupation numbers 
     1.0000   1.0000   1.0000   1.0000

          k =-0.4375 1.3125-0.4375 (   399 PWs)   bands (ev):

    -3.1562  -0.5299   3.9601   4.9328

     occupation numbers 
     1.0000   1.0000   1.0000   1.0000

          k =-0.4375-1.3125 0.4375 (   399 PWs)   bands (ev):

    -3.1561  -0.5301   3.9603   4.9327

     occupation numbers 
     1.0000   1.0000   1.0000   1.0000

          k = 0.4375 1.3125 0.4375 (   399 PWs)   bands (ev):

    -3.1561  -0.5302   3.9603   4.9328

     occupation numbers 
     1.0000   1.0000   1.0000   1.0000

          k = 0.4375-1.3125-0.4375 (   399 PWs)   bands (ev):

    -3.1562  -0.5298   3.9601   4.9327

     occupation numbers 
     1.0000   1.0000   1.0000   1.0000

     highest occupied level (ev):     6.3190

!    total energy              =     -93.45027222 Ry
     Harris-Foulkes estimate   =     -93.45027222 Ry
     estimated scf accuracy    <          2.9E-12 Ry

     total all-electron energy =     -1160.142002 Ry

     The total energy is the sum of the following terms:

     one-electron contribution =       5.88557025 Ry
     hartree contribution      =       1.08360524 Ry
     xc contribution           =     -12.33111905 Ry
     ewald contribution        =     -16.89975859 Ry
     one-center paw contrib.   =     -71.18857007 Ry
      -> PAW hartree energy AE =       6.18510275 Ry
      -> PAW hartree energy PS =      -6.16246852 Ry
      -> PAW xc energy AE      =     -81.83757842 Ry
      -> PAW xc energy PS      =      10.62637411 Ry
      -> total E_H with PAW    =       1.10623947 Ry
      -> total E_XC with PAW   =     -83.54232335 Ry

     convergence has been achieved in   6 iterations

     Forces acting on atoms (cartesian axes, Ry/au):

     atom    1 type  1   force =    -0.00000037   -0.00000854    0.00008779
     atom    2 type  1   force =     0.00000037    0.00000854   -0.00008779
     The non-local contrib.  to forces
     atom    1 type  1   force =    -0.00009055   -0.00016413    0.00000079
     atom    2 type  1   force =    -0.00008998   -0.00015327   -0.00000064
     The ionic contribution  to forces
     atom    1 type  1   force =    -0.00000064   -0.00001476    0.00003865
     atom    2 type  1   force =     0.00000064    0.00001476   -0.00003865
     The local contribution  to forces
     atom    1 type  1   force =     0.00001506    0.00003581   -0.00005118
     atom    2 type  1   force =     0.00001385    0.00001395    0.00005080
     The core correction contribution to forces
     atom    1 type  1   force =     0.00003816    0.00007565    0.00009977
     atom    2 type  1   force =     0.00003810    0.00007435   -0.00009973
     The Hubbard contrib.    to forces
     atom    1 type  1   force =     0.00000000    0.00000000    0.00000000
     atom    2 type  1   force =     0.00000000    0.00000000    0.00000000
     The SCF correction term to forces
     atom    1 type  1   force =     0.00000016   -0.00000018   -0.00000025
     atom    2 type  1   force =     0.00000031   -0.00000032    0.00000042

     Total force =     0.000125     Total SCF correction =     0.000001

     bfgs converged in   4 scf cycles and   3 bfgs steps
     (criteria: energy <  1.0E-04 Ry, force <  1.0E-03 Ry/Bohr)

     End of BFGS Geometry Optimization

     Final energy             =     -93.4502722245 Ry
Begin final coordinates

ATOMIC_POSITIONS (alat)
Si       0.002000062   0.003501432  -0.000003750
Si       0.251999938   0.253498568   0.250003750
End final coordinates



     Writing output data file Si.save\

     init_run     :     14.02s CPU      6.86s WALL (       1 calls)
     electrons    :   1394.59s CPU    696.89s WALL (       4 calls)
     update_pot   :      4.33s CPU      1.98s WALL (       3 calls)
     forces       :     15.25s CPU      7.01s WALL (       4 calls)

     Called by init_run:
     wfcinit      :     11.55s CPU      5.52s WALL (       1 calls)
     wfcinit:atom :      0.17s CPU      0.17s WALL (    1024 calls)
     wfcinit:wfcr :      9.61s CPU      4.51s WALL (    1024 calls)
     potinit      :      1.14s CPU      0.43s WALL (       1 calls)
     hinit0       :      1.25s CPU      0.79s WALL (       1 calls)

     Called by electrons:
     c_bands      :   1153.59s CPU    573.15s WALL (      33 calls)
     sum_band     :    191.81s CPU    102.18s WALL (      33 calls)
     v_of_rho     :      0.97s CPU      0.37s WALL (      35 calls)
     v_h          :      0.00s CPU      0.02s WALL (      35 calls)
     v_xc         :      1.14s CPU      0.39s WALL (      39 calls)
     newd         :      2.39s CPU      1.57s WALL (      35 calls)
     PAW_pot      :     55.56s CPU     23.85s WALL (      38 calls)
     mix_rho      :      0.16s CPU      0.04s WALL (      33 calls)

     Called by c_bands:
     init_us_2    :     73.09s CPU     40.17s WALL (   75776 calls)
     cegterg      :    955.84s CPU    468.91s WALL (   33792 calls)

     Called by sum_band:
     sum_band:bec :     12.03s CPU      9.70s WALL (   36864 calls)
     addusdens    :      3.80s CPU      2.59s WALL (      33 calls)

     Called by *egterg:
     h_psi        :    772.53s CPU    364.07s WALL (  112666 calls)
     s_psi        :     33.50s CPU     12.64s WALL (  112666 calls)
     g_psi        :     15.70s CPU     10.01s WALL (   77850 calls)
     cdiaghg      :     30.91s CPU     15.53s WALL (  106522 calls)
     cegterg:over :     23.95s CPU     11.74s WALL (   77850 calls)
     cegterg:upda :     27.19s CPU     16.21s WALL (   77850 calls)
     cegterg:last :     11.22s CPU      5.68s WALL (   38983 calls)

     Called by h_psi:
     h_psi:pot    :    756.62s CPU    350.89s WALL (  112666 calls)
     h_psi:calbec :     43.34s CPU     15.22s WALL (  112666 calls)
     vloc_psi     :    678.25s CPU    321.68s WALL (  112666 calls)
     add_vuspsi   :     31.55s CPU     11.75s WALL (  112666 calls)

     General routines
     calbec       :     61.95s CPU     20.82s WALL (  165914 calls)
     fft          :      0.30s CPU      0.07s WALL (     434 calls)
     ffts         :      0.00s CPU      0.01s WALL (      33 calls)
     fftw         :    523.53s CPU    171.89s WALL (  960800 calls)

     Parallel routines

     PAW routines
     PAW_pot      :     55.56s CPU     23.85s WALL (      38 calls)

     PWSCF        :  24m 4.97s CPU  12m 5.10s WALL


   This run was terminated on:  22:46:17  23Mar2023            

=------------------------------------------------------------------------------=
   JOB DONE.
=------------------------------------------------------------------------------=
