date Сбт Янв 10 10:51:33 YEKT 2015
hostname crystal2014
system Linux crystal2014 3.2.0-4-amd64 #1 SMP Debian 3.2.60-1+deb7u3 x86_64 GNU/Linux
user cry
output data in /home/cry/crystal14/i2_dzvpdkh_top.outp
properties executable in /opt/CRYSTAL14/bin/Linux-ifort/v1.0.3
input data in /home/cry/crystal14/i2_dzvpdkh_top.d3
temporary directory /home/tmp/tmp24159_cry
wave function data from /home/cry/crystal14/i2_dzvpdkh_top.f9
wave function formatted data from /home/cry/crystal14/i2_dzvpdkh_top.f98
TOPO
TRHO
0
0,1,1,0,25,7,10
0.
0.
END

         
 *******************************************************************************
 *                                                                             *
 *                               CRYSTAL14                                     *
 *                      public : 1.0.3 - Sep 1st, 2014                         *
 *                       HTTP://WWW.CRYSTAL.UNITO.IT                           *
 *                                                                             *
 *                              MAIN AUTHORS                                   *
 *                                                                             *
 *  R. DOVESI(1,11), V.R. SAUNDERS(2), C. ROETTI(1,11), R. ORLANDO(1,11),      *
 *  C.M. ZICOVICH-WILSON(1,3), F. PASCALE(4), B. CIVALLERI(1,11),              *
 *  K. DOLL(5), N.M. HARRISON(2,6), I. J. BUSH(7), Ph. D'ARCO(8),              *
 *  M. LLUNELL(9), M. CAUSA'(10), Y. NOEL(8)                                   *
 *                                                                             *
 *        CONTRIBUTIONS TO THE CURRENT RELEASE HAVE BEEN GIVEN BY              *
 *                                                                             *
 *  L. MASCHIO(1,11), S. CASASSA(1,11), A. ERBA(1,11), M. FERRABONE(1,11),     *
 *  M. DE LA PIERRE(1,11), M. FERRERO(1,11), V. LACIVITA(1,11),                *
 *  J. BAIMA(1,11), E. ALBANESE(1,11), M.F. PEINTINGER(12), R. BAST(13),       *
 *  M. RERAT(14), B. KIRTMAN(15), R. DEMICHELIS(1,16)                          *
 *                                                                             *
 * (1) THEORETICAL CHEMISTRY GROUP - UNIVERSITA' DI TORINO - TORINO (ITALY)    *
 *     http://www.crystal.unito.it                                             *
 * (2) COMPUTATIONAL SCIENCE & ENGINEERING DEPARTMENT - STFC DARESBURY (UK)    *
 *     http://www.stfc.ac.uk/CSE/randd/cmg/CRYSTAL/25806.aspx                  *
 * (3) UNIVERSIDAD AUTONOMA DEL ESTADO DE MORELOS - CUERNAVACA (MEXICO)        *
 * (4) UNIVERSITE' DE LORRAINE - NANCY (FRANCE)                                *
 * (5) UNIVERSITAET ULM - ULM (GERMANY); (6) IMPERIAL COLLEGE - LONDON (UK)    *
 * (7) NAG - OXFORD (UK); (8) UPMC - SORBONNE UNIVERSITES - PARIS (FRANCE)     *
 * (9) UNIVERSIDAD DE BARCELONA - BARCELONA (SPAIN)                            *
 *(10) UNIVERSITA' DI NAPOLI "FEDERICO II" - NAPOLI (ITALY)                    *
 *(11) NIS - NANOSTRUCTURED INTERFACES AND SURFACES - TORINO (ITALY)           *
 *(12) MPI FUER CHEMISCHE ENERGIEKONVERSION - MUELHEIM AN DER RUHR (GERMANY)   *
 *(13) UNIVERSITY OF STOCKHOLM - STOCKHOLM (SWEDEN)                            *
 *(14) UNIVERSITE' DE PAU ET DES PAYS DE L'ADOUR - PAU (FRANCE)                *
 *(15) UNIVERSITY OF CALIFORNIA SANTA BARBARA - SANTA BARBARA (USA)            *
 *(16) CURTIN UNIVERSITY - PERTH (AUSTRALIA)                                   *
 *                                                                             *
 ********************************************************************************
 EEEEEEEEEE STARTING  DATE 10 01 2015 TIME 10:51:34.0

 *******************************************************************************
 **I2 geo from opt i2_dzvp.out b3lyp/dzvp from Stash **                          
 CRYSTAL - PROPERTIES - TYPE OF CALCULATION :  RESTRICTED CLOSED SHELL
 *******************************************************************************
 KOHN-SHAM HAMILTONIAN

 (EXCHANGE)[CORRELATION] FUNCTIONAL:(BECKE 88)[LEE-YANG-PARR]

 NON-LOCAL WEIGHTING FACTOR (EXCHANGE) =           0.9000
 NON-LOCAL WEIGHTING FACTOR [CORRELATION] =        0.8100

 HYBRID EXCHANGE - PERCENTAGE OF FOCK EXCHANGE    20.0000

 DIRECT LATTICE VECTOR COMPONENTS (ANGSTROM)
         3.57945    2.34575    0.00000
        -3.57945    2.34575    0.00000
         0.00000    0.00000    9.80140

 LATTICE PARAMETERS  (ANGSTROM AND DEGREES) - PRIMITIVE CELL
       A          B          C         ALPHA      BETA     GAMMA        VOLUME
    4.27960    4.27960    9.80140     90.0000   90.0000  113.5233     164.59481
 *******************************************************************************
 N. OF ATOMS PER CELL         4 COULOMB OVERLAP TOL          (T1) 10**   -6
 NUMBER OF SHELLS            68 COULOMB PENETRATION TOL      (T2) 10**   -6
 NUMBER OF AO               164 EXCHANGE OVERLAP TOL         (T3) 10**   -6
 N. OF ELECTRONS PER CELL   212 EXCHANGE PSEUDO OVP (F(G))   (T4) 10**   -6
 CORE ELECTRONS PER CELL    184 EXCHANGE PSEUDO OVP (P(G))   (T5) 10**  -12
 N. OF SYMMETRY OPERATORS     8 POLE ORDER IN MONO ZONE                   4
 *******************************************************************************
   ATOM N.AT.  SHELL    X(A)      Y(A)      Z(A)      EXAD       N.ELECT.
 *******************************************************************************
    1   53 I    17     0.000     0.718     1.213   7.202E-01      53.000
    2   53 I    17     0.000     1.628    -3.688   7.202E-01      53.000
    3   53 I    17     0.000    -0.718    -1.213   7.202E-01      53.000
    4   53 I    17     0.000    -1.628     3.688   7.202E-01      53.000
 *******************************************************************************
 DE(K)                   0.000E+00  ENERGY LEVEL SHIFTING        1.10000
 TOTAL ENERGY -2.7376212084898E+04  CONVERGENCE ON ENER        1.569E-07
 KIN. ENERGY   2.7074511754704E+04  VIR. COEFF.           1.00476937E+00
 N. OF SCF CYCLES               24  FERMI ENERGY              -0.132E+01
 WEIGHT OF F(I) IN F(I+1)      70
 SHRINK. FACT.(MONKH.)     8  8  8  SHRINKING FACTOR(GILAT NET)       16
 NUMBER OF K POINTS IN THE IBZ 105  CELL VOLUME (A.U.)       1110.740844
 *******************************************************************************

 GCALCO - MAX INDICES DIRECT LATTICE VECTOR    19    19     7
 NO.OF VECTORS CREATED 6999 STARS 1042 RMAX   122.82689 BOHR

 MATRIX SIZE: P(G)  151320, F(G)   25402, P(G) IRR   13885, F(G) IRR    5135
 MAX G-VECTOR INDEX FOR 1- AND 2-ELECTRON INTEGRALS 233


 CAPPA:IS1  8;IS2  8;IS3  8; K PTS MONK NET 105; SYMMOPS:K SPACE   8;G SPACE   8

 *******************************************************************************
 *                                                                             *
 *                              T O P O N D  ! 0 1 3                          *
 *                                                                             *
 *           AN ELECTRON DENSITY TOPOLOGICAL ANALYSIS PROGRAM FOR              *
 *                 SYSTEMS PERIODIC IN N (N=0-3) DIMENSIONS                    *
 *                                                                             *
 *                          USER MANUAL BY CARLO GATTI                         *
 *                                                                             *
 *            CNR-ISTM, ISTITUTO DI SCIENZE E TECNOLOGIE MOLECOLARI            *
 *                   VIA GOLGI 19  - I-20133 MILANO - ITALIA                   *
 *                     E-MAIL: c.gatti@istm.cnr.it                             * *                                                                             *
 *******************************************************************************

CRYSTAL INFORMATION ON THE REFERENCE SYSTEM:

 DIRECT LATTICE VECTOR COMPONENTS (BOHR)
         6.76418    4.43283    0.00000
        -6.76418    4.43283    0.00000
         0.00000    0.00000   18.52196

 LATTICE PARAMETERS  (BOHR AND DEGREES) - PRIMITIVE CELL
        A           B           C        ALPHA        BETA       GAMMA       VOLUME
     8.08728     8.08728    18.52196    90.00000    90.00000   113.52329  1110.74084
 *******************************************************************************
 N. OF ATOMS PER CELL        4  COULOMB OVERLAP TOL         (T1) 10** -6
 NUMBER OF SHELLS           68  COULOMB PENETRATION TOL     (T2) 10** -6
 NUMBER OF AO              164  EXCHANGE OVERLAP TOL        (T3) 10** -6
 N. OF ELECTRONS PER CELL   212 EXCHANGE PSEUDO OVP (F(G))  (T4) 10** -6
 CORE ELECTRONS PER CELL   184  EXCHANGE PSEUDO OVP (P(G))  (T5) 10**-12
 N. OF SYMMETRY OPERATORS    8  POLE ORDER IN MONO ZONE                4
 *******************************************************************************
  ATOM  SHEL    X(AU)     Y(AU)     Z(AU)
 *******************************************************************************
   53 I   17     0.000     1.356     2.292
   53 I   17     0.000     3.076    -6.969
   53 I   17     0.000    -1.356    -2.292
   53 I   17     0.000    -3.076     6.969
 *******************************************************************************
 DE(K)                  0.000E+00  CONVERGENCE ON EIGENVALUES   10**-20
 WEIGHT OF F(I) IN F(I+1)     70%  CONVERGENCE ON ENERGY        10**- 7
 TOTAL ENERGY     -2.73762121E+04  FERMI ENERGY              -1.319E+00
 KIN. ENERGY       2.70745118E+04  VIR. COEFF.           1.00476937E+00
 SHRINK. FACT.(MONKH.)    8  8  8  STARS FOR FOURIER EXP. OF E(K)     1
 SHRINKING FACTOR (GILAT NET)  16  NUMBER OF K POINTS IN THE IBZ    105
 CELL VOLUME (A.U.)        1110.741N. OF SCF CYCLES                  24
 ENERGY LEVEL SHIFTING    1.10000
 *******************************************************************************

 NEIGHBORS OF THE NON-EQUIVALENT ATOMS

 N = NUMBER OF NEIGHBORS AT DISTANCE R
    ATOM  N     R/ANG      R/AU   NEIGHBORS (ATOM LABELS AND CELL INDICES)

   1 I    1     2.8187     5.3266   3 I    0 0 0
   1 I    2     3.4099     6.4439   4 I    0 0 0   4 I    1 1 0
   1 I    1     4.0603     7.6728   3 I    1 1 0
   1 I    4     4.2796     8.0873   1 I   -1 0 0   1 I    1 0 0   1 I    0-1 0
                                    1 I    0 1 0
   1 I    2     4.3517     8.2236   4 I    1 0 0   4 I    0 1 0
   1 I    2     4.4188     8.3502   3 I    1 0 0   3 I    0 1 0
   1 I    2     4.6915     8.8657   1 I   -1-1 0   1 I    1 1 0

 CLUSTERS AROUND EACH OF THE NON-EQUIVALENT ATOMS

 NON-EQUIV. ATOM    1 I (N.   1 IN THE UNIT CELL), CLUSTER OF   14 ATOMS
 NEW  OLD   CELL  AT. NU.         COORD.(AU)             DISTANCE (ANG)
  1    3   0 0 0   53        0.000  -1.356  -2.292          2.819
  2    4   0 0 0   53        0.000  -3.076   6.969          3.410
  3    4   1 1 0   53        0.000   5.789   6.969          3.410
  4    3   1 1 0   53        0.000   7.509  -2.292          4.060
  5    1  -1 0 0   53       -6.764  -3.076   2.292          4.280
  6    1   1 0 0   53        6.764   5.789   2.292          4.280
  7    1   0-1 0   53        6.764  -3.076   2.292          4.280
  8    1   0 1 0   53       -6.764   5.789   2.292          4.280
  9    4   1 0 0   53        6.764   1.356   6.969          4.352
 10    4   0 1 0   53       -6.764   1.356   6.969          4.352
 11    3   1 0 0   53        6.764   3.076  -2.292          4.419
 12    3   0 1 0   53       -6.764   3.076  -2.292          4.419
 13    1  -1-1 0   53        0.000  -7.509   2.292          4.691
 14    1   1 1 0   53        0.000  10.222   2.292          4.691

 *******************************************************************************
         TOPOLOGICAL ANALYSIS OF RHO : UNIQUE ATOM PAIRS CONSIDERED
 *******************************************************************************

 NON EQUIV. ATOM   1  I 

  NEW   SYM  OLD   CELL           COORD. (AU)         DISTANCE (ANG)
   1    I     3    0 0 0      0.000  -1.356  -2.292         2.819
   2    I     4    0 0 0      0.000  -3.076   6.969         3.410
   4    I     3    1 1 0      0.000   7.509  -2.292         4.060
   5    I     1   -1 0 0     -6.764  -3.076   2.292         4.280
   9    I     4    1 0 0      6.764   1.356   6.969         4.352
  11    I     3    1 0 0      6.764   3.076  -2.292         4.419
  13    I     1   -1-1 0      0.000  -7.509   2.292         4.691


 ************* T O P O L O G I C A L  A N A L I S Y S  O F  R H O *************


 COMPUTATIONAL CONDITIONS :
                           IAUTO                                     :     0
                           ALGORITHM FOR CP SEARCH                   :    NR
                           DETERMINATION OF BOND PATH ATTRACTORS     :     T
                           MAX.NUM. OF N.R. OR EIG. FOL. STEPS       :    25
                           NEIGHBORS OF EACH NON-EQUIVALENT ATOM     :     7
                           THRESHOLD ON INTERNUC. DISTANCES (ANG)    :   5.0
                           PRINT N.RAPH OR E.FOL. OR PAR. EQ. SEARCH :     F
                           TOTAL NUMBER OF PAIRS CONSIDERED          :     7


 *********** CP SEARCH AMONG ATOM PAIRS WITH NON-EQUIV. ATOM 1 I  ***********


 CP N.   1  NON-EQUIV. ATOM   1 I  ---   3 I (  0   0   0 )  DISTANCE(ANG)= 2.8187
 *********

 CP TYPE                        :  (3,-1)
 COORD(AU)  (X  Y  Z)           : -9.8741E-19 -4.0917E-16  4.6930E-16
 COORD FRACT. CONV. CELL        : -7.2988E-20 -4.6152E-17  2.5337E-17
 PROPERTIES (RHO,GRHO,LAP)      :  5.9803E-02  8.0426E-18  2.5805E-03
 KINETIC ENERGY DENSITIES (G,K) :  1.9383E-02  1.8738E-02
 VIRIAL DENSITY                 : -3.8120E-02
 ELF(PAA)                       :  6.4731E-01

 SPECTRAL DECOMP. OF THE HESSIAN OF RHO

 EIGENVALUES (L1 L2 L3)         : -3.8152E-02 -3.7424E-02  7.8156E-02
 EIGENVECTORS                   :  4.8300E-18  1.0000E+00  7.3072E-18
                                  -8.5960E-01  7.8856E-18 -5.1097E-01
                                   5.1097E-01  3.8133E-18 -8.5960E-01

 ELLIPTICITY                    :  1.9442E-02

 VECTORS FROM NUCLEI TO CP (LENGTHS AND ANGLES MADE WITH PROJ. ONTO YZ,XZ,XY)


 SYM OLD    CELL      RX(ANG)    YZ      XZ      XY
 I     1   0  0  0    1.4094    0.00   30.62   59.38
 I     3   0  0  0    1.4094    0.00   30.62   59.38
 I     4   0  0  0    4.0312    0.00   23.82   66.18
 I     4   1  1  0    4.7943    0.00   39.72   50.28
 I     3   1  1  0    4.1547    0.00   73.03   16.97
 I     1  -1  0  0    4.1151   60.44   23.30   17.14
 I     1   1  0  0    4.8651   47.37   39.03   14.44
 I     1   0 -1  0    4.1151   60.44   23.30   17.14
 I     1   0  1  0    4.8651   47.37   39.03   14.44
 I     4   1  0  0    5.1892   43.61    7.95   45.29
 I     4   0  1  0    5.1892   43.61    7.95   45.29
 I     3   1  0  0    4.1151   60.44   23.30   17.14
 I     3   0  1  0    4.1151   60.44   23.30   17.14
 I     1  -1 -1  0    4.1547    0.00   73.03   16.97
 I     1   1  1  0    5.5436    0.00   77.36   12.64

 ******************************
 SEARCH OF BOND PATH ATTRACTORS
 ******************************


 THE CODE WAS UNABLE TO FIND THE PATH ATTRACTOR 1

 THE CODE WAS UNABLE TO FIND THE PATH ATTRACTOR 2

 CP N.   2  NON-EQUIV. ATOM   1 I  ---   4 I (  0   0   0 )  DISTANCE(ANG)= 3.4099
 *********

 CP TYPE                        :  (3,-1)
 COORD(AU)  (X  Y  Z)           :  3.9990E-20 -9.4302E-01  4.7141E+00
 COORD FRACT. CONV. CELL        :  2.9560E-21 -1.0637E-01  2.5451E-01
 PROPERTIES (RHO,GRHO,LAP)      :  2.1655E-02  4.2215E-17  4.7412E-02
 KINETIC ENERGY DENSITIES (G,K) :  1.2960E-02  1.1075E-03
 VIRIAL DENSITY                 : -1.4068E-02
 ELF(PAA)                       :  1.2197E-01

 SPECTRAL DECOMP. OF THE HESSIAN OF RHO

 EIGENVALUES (L1 L2 L3)         : -1.3634E-02 -1.2616E-02  7.3662E-02
 EIGENVECTORS                   :  1.7594E-18  1.0000E+00  3.4540E-18
                                   7.5178E-01  9.5490E-19 -6.5941E-01
                                   6.5941E-01 -3.7569E-18  7.5178E-01

 ELLIPTICITY                    :  8.0647E-02

 VECTORS FROM NUCLEI TO CP (LENGTHS AND ANGLES MADE WITH PROJ. ONTO YZ,XZ,XY)


 SYM OLD    CELL      RX(ANG)    YZ      XZ      XY
 I     1   0  0  0    1.7673    0.00   43.51   46.49
 I     3   0  0  0    3.7139    0.00    3.38   86.62
 I     4   0  0  0    1.6427    0.00   43.41   46.59
 I     4   1  1  0    3.7571    0.00   71.48   18.52
 I     3   1  1  0    5.8096    0.00   50.34   39.66
 I     1  -1  0  0    3.9661   64.49   16.54   18.85
 I     1   1  0  0    5.2103   43.39   43.14   14.24
 I     1   0 -1  0    3.9661   64.49   16.54   18.85
 I     1   0  1  0    5.2103   43.39   43.14   14.24
 I     4   1  0  0    3.9644   64.54   17.87   17.52
 I     4   0  1  0    3.9644   64.54   17.87   17.52
 I     3   1  0  0    5.5751   39.94   22.43   41.68
 I     3   0  1  0    5.5751   39.94   22.43   41.68
 I     1  -1 -1  0    3.7035    0.00   69.75   20.25
 I     1   1  1  0    6.0457    0.00   77.76   12.24

 ******************************
 SEARCH OF BOND PATH ATTRACTORS
 ******************************


 THE CODE WAS UNABLE TO FIND THE PATH ATTRACTOR 1

 THE CODE WAS UNABLE TO FIND THE PATH ATTRACTOR 2

 CP N.   3  NON-EQUIV. ATOM   1 I  ---   3 I (  1   1   0 )  DISTANCE(ANG)= 4.0603
 *********

 CP TYPE                        :  (3,-1)
 COORD(AU)  (X  Y  Z)           :  3.6270E-18  4.4328E+00 -6.6664E-16
 COORD FRACT. CONV. CELL        :  2.6810E-19  5.0000E-01 -3.5992E-17
 PROPERTIES (RHO,GRHO,LAP)      :  7.0490E-03  5.0040E-18  2.5806E-02
 KINETIC ENERGY DENSITIES (G,K) :  5.0883E-03 -1.3631E-03
 VIRIAL DENSITY                 : -3.7252E-03
 ELF(PAA)                       :  2.0936E-02

 SPECTRAL DECOMP. OF THE HESSIAN OF RHO

 EIGENVALUES (L1 L2 L3)         : -4.6009E-03 -4.0272E-03  3.4434E-02
 EIGENVECTORS                   : -1.4956E-17  1.0000E+00  7.1578E-17
                                   6.1242E-01  6.5744E-17 -7.9053E-01
                                   7.9053E-01 -3.2013E-17  6.1242E-01

 ELLIPTICITY                    :  1.4245E-01

 VECTORS FROM NUCLEI TO CP (LENGTHS AND ANGLES MADE WITH PROJ. ONTO YZ,XZ,XY)


 SYM OLD    CELL      RX(ANG)    YZ      XZ      XY
 I     1   0  0  0    2.0301    0.00   53.31   36.69
 I     3   0  0  0    3.2949    0.00   68.40   21.60
 I     4   0  0  0    5.4213    0.00   47.14   42.86
 I     4   1  1  0    3.7570    0.00   11.01   78.99
 I     3   1  1  0    2.0301    0.00   53.31   36.69
 I     1  -1  0  0    5.4840   40.75   46.44   12.78
 I     1   1  0  0    3.8469   68.51   10.75   18.38
 I     1   0 -1  0    5.4840   40.75   46.44   12.78
 I     1   0  1  0    3.8469   68.51   10.75   18.38
 I     4   1  0  0    5.3910   41.60   17.58   43.16
 I     4   0  1  0    5.3910   41.60   17.58   43.16
 I     3   1  0  0    3.8469   68.51   10.75   18.38
 I     3   0  1  0    3.8469   68.51   10.75   18.38
 I     1  -1 -1  0    6.4348    0.00   79.14   10.86
 I     1   1  1  0    3.2949    0.00   68.40   21.60

 ******************************
 SEARCH OF BOND PATH ATTRACTORS
 ******************************


 THE CODE WAS UNABLE TO FIND THE PATH ATTRACTOR 1

 THE CODE WAS UNABLE TO FIND THE PATH ATTRACTOR 2

 CP N.   4  NON-EQUIV. ATOM   1 I  ---   1 I ( -1   0   0 )  DISTANCE(ANG)= 4.2796
 *********

 CP TYPE                        :  (3,-1)
 COORD(AU)  (X  Y  Z)           : -3.3765E+00 -8.6025E-01  2.3089E+00
 COORD FRACT. CONV. CELL        : -2.4959E-01 -9.7032E-02  1.2466E-01
 PROPERTIES (RHO,GRHO,LAP)      :  4.4496E-03  1.0581E-15  1.8522E-02
 KINETIC ENERGY DENSITIES (G,K) :  3.4051E-03 -1.2254E-03
 VIRIAL DENSITY                 : -2.1797E-03
 ELF(PAA)                       :  1.0198E-02

 SPECTRAL DECOMP. OF THE HESSIAN OF RHO

 EIGENVALUES (L1 L2 L3)         : -2.6550E-03 -2.4247E-03  2.3602E-02
 EIGENVECTORS                   : -2.6950E-01  4.9745E-01  8.2457E-01
                                   3.5557E-01 -7.4435E-01  5.6526E-01
                                   8.9495E-01  4.4553E-01  2.3729E-02

 ELLIPTICITY                    :  9.5010E-02

 VECTORS FROM NUCLEI TO CP (LENGTHS AND ANGLES MADE WITH PROJ. ONTO YZ,XZ,XY)


 SYM OLD    CELL      RX(ANG)    YZ      XZ      XY
 I     1   0  0  0    2.1374   56.72   33.28    0.24
 I     3   0  0  0    3.0314   36.12    4.97   53.43
 I     4   0  0  0    3.2633   33.20   21.06   49.08
 I     4   1  1  0    4.6535   22.58   49.13   32.00
 I     3   1  1  0    5.3606   19.47   55.71   27.01
 I     1  -1  0  0    2.1422   56.81   33.19    0.24
 I     1   1  0  0    6.4170   56.75   33.25    0.08
 I     1   0 -1  0    5.4929   77.67   12.33    0.09
 I     1   0  1  0    3.9491   27.00   63.00    0.13
 I     4   1  0  0    6.0211   63.03   11.23   24.18
 I     4   0  1  0    3.2666   33.28   21.04   49.02
 I     3   1  0  0    6.2501   59.16   19.47   22.93
 I     3   0  1  0    3.6717   29.22   34.57   41.54
 I     1  -1 -1  0    3.9462   26.92   63.08    0.13
 I     1   1  1  0    6.1307   16.94   73.05    0.08

 ******************************
 SEARCH OF BOND PATH ATTRACTORS
 ******************************


 THE CODE WAS UNABLE TO FIND THE PATH ATTRACTOR 1

 THE CODE WAS UNABLE TO FIND THE PATH ATTRACTOR 2

 CP N.   5  NON-EQUIV. ATOM   1 I  ---   4 I (  1   0   0 )  DISTANCE(ANG)= 4.3517
 *********

 CP TYPE                        :  (3,-1)
 COORD(AU)  (X  Y  Z)           :  3.3821E+00  1.2812E+00  4.6305E+00
 COORD FRACT. CONV. CELL        :  2.5000E-01  1.4452E-01  2.5000E-01
 PROPERTIES (RHO,GRHO,LAP)      :  3.6547E-03  8.6031E-13  1.5479E-02
 KINETIC ENERGY DENSITIES (G,K) :  2.7784E-03 -1.0914E-03
 VIRIAL DENSITY                 : -1.6869E-03
 ELF(PAA)                       :  7.9661E-03

 SPECTRAL DECOMP. OF THE HESSIAN OF RHO

 EIGENVALUES (L1 L2 L3)         : -1.9975E-03 -1.9324E-03  1.9409E-02
 EIGENVECTORS                   : -6.0209E-01  0.0000E+00  7.9843E-01
                                  -1.1102E-16  1.0000E+00 -1.1102E-16
                                   7.9843E-01  4.4409E-16  6.0209E-01

 ELLIPTICITY                    :  3.3684E-02

 VECTORS FROM NUCLEI TO CP (LENGTHS AND ANGLES MADE WITH PROJ. ONTO YZ,XZ,XY)


 SYM OLD    CELL      RX(ANG)    YZ      XZ      XY
 I     1   0  0  0    2.1762   55.33    1.05   34.65
 I     3   0  0  0    4.3094   24.54   18.90   58.22
 I     4   0  0  0    3.1705   34.37   46.66   22.97
 I     4   1  1  0    3.2288   33.66   47.63   22.54
 I     3   1  1  0    5.2426   19.96   38.95   44.33
 I     1  -1  0  0    5.9730   64.01   22.71   11.96
 I     1   1  0  0    3.2288   33.66   47.63   22.54
 I     1   0 -1  0    3.1705   34.37   46.66   22.97
 I     1   0  1  0    6.0042   63.41   23.41   11.89
 I     4   1  0  0    2.1762   55.33    1.05   34.65
 I     4   0  1  0    5.5101   77.02    0.41   12.98
 I     3   1  0  0    4.1863   25.31   13.12   61.05
 I     3   0  1  0    6.5689   54.82    8.32   33.89
 I     1  -1 -1  0    5.1355   20.40   64.93   13.94
 I     1   1  1  0    5.2076   20.10   65.30   13.75

 ******************************
 SEARCH OF BOND PATH ATTRACTORS
 ******************************


 THE CODE WAS UNABLE TO FIND THE PATH ATTRACTOR 1

 THE CODE WAS UNABLE TO FIND THE PATH ATTRACTOR 2

 CP N.   6  NON-EQUIV. ATOM   1 I  ---   3 I (  1   0   0 )  DISTANCE(ANG)= 4.4188
 *********

 CP TYPE                        :  (3,-1)
 COORD(AU)  (X  Y  Z)           :  3.3821E+00  2.2164E+00 -3.7940E-16
 COORD FRACT. CONV. CELL        :  2.5000E-01  2.5000E-01 -2.0484E-17
 PROPERTIES (RHO,GRHO,LAP)      :  3.1585E-03  2.9929E-18  1.3881E-02
 KINETIC ENERGY DENSITIES (G,K) :  2.4448E-03 -1.0254E-03
 VIRIAL DENSITY                 : -1.4194E-03
 ELF(PAA)                       :  6.3365E-03

 SPECTRAL DECOMP. OF THE HESSIAN OF RHO

 EIGENVALUES (L1 L2 L3)         : -1.6277E-03 -1.4227E-03  1.6931E-02
 EIGENVECTORS                   : -4.9265E-01 -3.6273E-01  7.9103E-01
                                   7.5805E-01 -6.2529E-01  1.8538E-01
                                  -4.2738E-01 -6.9097E-01 -5.8302E-01

 ELLIPTICITY                    :  1.4410E-01

 VECTORS FROM NUCLEI TO CP (LENGTHS AND ANGLES MADE WITH PROJ. ONTO YZ,XZ,XY)


 SYM OLD    CELL      RX(ANG)    YZ      XZ      XY
 I     1   0  0  0    2.2094   54.10   11.89   33.30
 I     3   0  0  0    2.8721   38.55   41.17   24.98
 I     4   0  0  0    4.9647   21.13   34.34   47.97
 I     4   1  1  0    4.5141   23.36   24.76   54.78
 I     3   1  1  0    3.5382   30.39   52.34   20.05
 I     1  -1  0  0    6.1761   60.38   26.97   11.33
 I     1   1  0  0    2.8721   38.55   41.17   24.98
 I     1   0 -1  0    3.5382   30.39   52.34   20.05
 I     1   0  1  0    5.8201   67.30   18.96   12.03
 I     4   1  0  0    4.1243   25.72    6.34   63.40
 I     4   0  1  0    6.5296   55.31    4.00   34.39
 I     3   1  0  0    2.2094   54.10   11.89   33.30
 I     3   0  1  0    5.5232   76.43    4.73   12.69
 I     1  -1 -1  0    5.5823   18.70   67.21   12.55
 I     1   1  1  0    4.7562   22.10   62.96   14.77

 ******************************
 SEARCH OF BOND PATH ATTRACTORS
 ******************************


 THE CODE WAS UNABLE TO FIND THE PATH ATTRACTOR 1

 THE CODE WAS UNABLE TO FIND THE PATH ATTRACTOR 2

 CP N.   7  NON-EQUIV. ATOM   1 I  ---   1 I ( -1  -1   0 )  DISTANCE(ANG)= 4.6915
 *********

 CP TYPE                        :  (3,+1)
 COORD(AU)  (X  Y  Z)           :  4.5223E-18 -3.0779E+00  2.1450E+00
 COORD FRACT. CONV. CELL        :  3.3429E-19 -3.4717E-01  1.1581E-01
 PROPERTIES (RHO,GRHO,LAP)      :  1.9751E-03  1.0363E-17  9.7447E-03
 KINETIC ENERGY DENSITIES (G,K) :  1.6078E-03 -8.2832E-04
 VIRIAL DENSITY                 : -7.7953E-04
 ELF(PAA)                       :  3.0735E-03

 SPECTRAL DECOMP. OF THE HESSIAN OF RHO

 EIGENVALUES (L1 L2 L3)         : -9.1850E-04  2.0808E-03  8.5824E-03
 EIGENVECTORS                   : -1.0000E+00  1.8095E-19 -6.0209E-21
                                   7.5006E-21  8.1781E-03 -9.9997E-01
                                   1.8090E-19  9.9997E-01  8.1781E-03


 VECTORS FROM NUCLEI TO CP (LENGTHS AND ANGLES MADE WITH PROJ. ONTO YZ,XZ,XY)


 SYM OLD    CELL      RX(ANG)    YZ      XZ      XY
 I     1   0  0  0    2.3478    0.00   88.10    1.90
 I     3   0  0  0    2.5185    0.00   21.21   68.79
 I     4   0  0  0    2.5527    0.00    0.02   89.98
 I     4   1  1  0    5.3417    0.00   61.45   28.55
 I     3   1  1  0    6.0746    0.00   67.26   22.74
 I     1  -1  0  0    3.5803   88.75    0.01    1.25
 I     1   1  0  0    5.9022   37.33   52.66    0.76
 I     1   0 -1  0    3.5803   88.75    0.01    1.25
 I     1   0  1  0    5.9022   37.33   52.66    0.76
 I     4   1  0  0    4.9835   45.91   28.09   30.81
 I     4   0  1  0    4.9835   45.91   28.09   30.81
 I     3   1  0  0    5.3788   41.72   37.26   25.88
 I     3   0  1  0    5.3788   41.72   37.26   25.88
 I     1  -1 -1  0    2.3463    0.00   88.10    1.90
 I     1   1  1  0    7.0384    0.00   89.37    0.63


 NUMBER OF ATOM PAIRS INVESTIGATED:     7
 NUMBER OF UNIQUE CRI. POINT FOUND:     7


        ********** C R I T I C A L  P O I N T S  F O U N D **********


   X(AU)   Y(AU)   Z(AU)   TYPE      RHO    LAPL   L1(V1)  L2(V2)  L3(V3)  ELLIP

 *******************************************************************************
  -0.000  -0.000   0.000  (3,-1)    0.060   0.003  -0.038  -0.037   0.078  0.019

 ( I   1   0  0  0   2.663  AU)                     0.000   1.000   0.000
 ( I   3   0  0  0   2.663  AU)                    -0.860   0.000  -0.511
                                                    0.511   0.000  -0.860


   0.000  -0.943   4.714  (3,-1)    0.022   0.047  -0.014  -0.013   0.074  0.081

 ( I   4   0  0  0   3.104  AU)                     0.000   1.000   0.000
 ( I   1   0  0  0   3.340  AU)                     0.752   0.000  -0.659
                                                    0.659  -0.000   0.752


   0.000   4.433  -0.000  (3,-1)    0.007   0.026  -0.005  -0.004   0.034  0.142

 ( I   3   1  1  0   3.836  AU)                    -0.000   1.000   0.000
 ( I   1   0  0  0   3.836  AU)                     0.612   0.000  -0.791
                                                    0.791  -0.000   0.612


  -3.377  -0.860   2.309  (3,-1)    0.004   0.019  -0.003  -0.002   0.024  0.095

 ( I   1   0  0  0   4.039  AU)                    -0.270   0.497   0.825
 ( I   1  -1  0  0   4.048  AU)                     0.356  -0.744   0.565
                                                    0.895   0.446   0.024


   3.382   1.281   4.630  (3,-1)    0.004   0.015  -0.002  -0.002   0.019  0.034

 ( I   4   1  0  0   4.112  AU)                    -0.602   0.000   0.798
 ( I   1   0  0  0   4.112  AU)                    -0.000   1.000  -0.000
                                                    0.798   0.000   0.602


   3.382   2.216  -0.000  (3,-1)    0.003   0.014  -0.002  -0.001   0.017  0.144

 ( I   3   1  0  0   4.175  AU)                    -0.493  -0.363   0.791
 ( I   1   0  0  0   4.175  AU)                     0.758  -0.625   0.185
                                                   -0.427  -0.691  -0.583


   0.000  -3.078   2.145  (3,+1)    0.002   0.010  -0.001   0.002   0.009
                                                   -1.000   0.000  -0.000
                                                    0.000   0.008  -1.000
                                                    0.000   1.000   0.008


 *******************************************************************************
 TTTTTTTTTTTTTTTTTTTTTTTTTTTTTT TRHO        TELAPSE       73.69 TCPU       73.52
 TTTTTTTTTTTTTTTTTTTTTTTTTTTTTT END         TELAPSE       73.69 TCPU       73.52
 EEEEEEEEEE TERMINATION  DATE 10 01 2015 TIME 10:52:47.6
Сбт Янв 10 10:52:47 YEKT 2015
Contents of temporary directory:
итого 3324
-rw-r--r-- 1 cry cry  203224 Янв 10 10:51 fort.11
-rw-r--r-- 1 cry cry 1210568 Янв 10 10:51 fort.13
-rw-r--r-- 1 cry cry  203224 Янв 10 10:51 fort.3
-rw-r--r-- 1 cry cry  498692 Янв 10 10:51 fort.9
-rw-r--r-- 1 cry cry 1278655 Янв 10 10:51 fort.98
file fort.98 saved as /home/cry/crystal14/i2_dzvpdkh_top.f98
file fort.13 saved as /home/cry/crystal14/i2_dzvpdkh_top.f13
temporary directory /home/tmp/tmp24159_cry removed
