   1   1   0   0
  0.1482975E+02  0.2757716E-09  0.2757716E-09  0.2757716E-09  0.5000000E-15
  1.000000000000000E-004
  CAR 
 fcc Si                                  
     80.78952594     -9.55810883  301      7.90341495      1.00000000
     -9.558  0.0000E+00  0.0000E+00
     -9.257  0.0000E+00  0.0000E+00
     -8.956  0.0000E+00  0.0000E+00
     -8.655  0.0000E+00  0.0000E+00
     -8.353  0.0000E+00  0.0000E+00
     -8.052  0.0000E+00  0.0000E+00
     -7.751  0.0000E+00  0.0000E+00
     -7.450  0.0000E+00  0.0000E+00
     -7.149  0.0000E+00  0.0000E+00
     -6.848  0.0000E+00  0.0000E+00
     -6.547  0.0000E+00  0.0000E+00
     -6.245  0.0000E+00  0.0000E+00
     -5.944  0.8460E-13  0.2548E-13
     -5.643  0.1786E-03  0.5378E-04
     -5.342  0.4972E-01  0.1503E-01
     -5.041  0.3226E-02  0.1600E-01
     -4.740  0.4306E-09  0.1600E-01
     -4.438  0.1472E-01  0.2043E-01
     -4.137  0.4077E+00  0.1432E+00
     -3.836  0.2922E+00  0.2312E+00
     -3.535  0.2917E-01  0.2400E+00
     -3.234  0.3609E-08  0.2400E+00
     -2.933  0.1662E-12  0.2400E+00
     -2.631  0.9787E-03  0.2403E+00
     -2.330  0.5747E+00  0.4134E+00
     -2.029  0.6189E-01  0.4320E+00
     -1.728  0.9485E-08  0.4320E+00
     -1.427  0.4360E-01  0.4451E+00
     -1.126  0.1223E+01  0.8136E+00
     -0.825  0.4069E+00  0.9361E+00
     -0.523  0.2620E-01  0.9440E+00
     -0.222  0.1407E-08  0.9440E+00
      0.079  0.1214E-11  0.9440E+00
      0.380  0.1545E-02  0.9445E+00
      0.681  0.3022E+00  0.1035E+01
      0.982  0.1505E-01  0.1040E+01
      1.284  0.1222E-05  0.1040E+01
      1.585  0.3921E+00  0.1158E+01
      1.886  0.9147E+00  0.1434E+01
      2.187  0.1230E+01  0.1804E+01
      2.488  0.1377E-01  0.1808E+01
      2.789  0.3513E-10  0.1808E+01
      3.091  0.1195E-11  0.1808E+01
      3.392  0.3418E-02  0.1809E+01
      3.693  0.1182E+01  0.2165E+01
      3.994  0.8957E-01  0.2192E+01
      4.295  0.4688E+00  0.2333E+01
      4.596  0.2671E+00  0.2414E+01
      4.898  0.7070E+00  0.2627E+01
      5.199  0.2571E+00  0.2704E+01
      5.500  0.2123E-05  0.2704E+01
      5.801  0.0000E+00  0.2704E+01
      6.102  0.1317E-10  0.2704E+01
      6.403  0.6142E-02  0.2706E+01
      6.704  0.6139E+00  0.2891E+01
      7.006  0.9177E-01  0.2918E+01
      7.307  0.1196E+01  0.3279E+01
      7.608  0.7811E-02  0.3281E+01
      7.909  0.2441E+01  0.4016E+01
      8.210  0.4248E+00  0.4144E+01
      8.511  0.3112E-06  0.4144E+01
      8.813  0.0000E+00  0.4144E+01
      9.114  0.1506E-08  0.4144E+01
      9.415  0.5544E-01  0.4161E+01
      9.716  0.1213E+01  0.4526E+01
     10.017  0.5020E+00  0.4677E+01
     10.318  0.1423E+00  0.4720E+01
     10.620  0.2064E+00  0.4782E+01
     10.921  0.1704E+01  0.5295E+01
     11.222  0.2423E-02  0.5296E+01
     11.523  0.3084E-13  0.5296E+01
     11.824  0.3684E-03  0.5296E+01
     12.125  0.4681E+00  0.5437E+01
     12.426  0.6471E+00  0.5632E+01
     12.728  0.5833E+00  0.5808E+01
     13.029  0.6855E+00  0.6014E+01
     13.330  0.5908E+00  0.6192E+01
     13.631  0.2012E+00  0.6253E+01
     13.932  0.1239E+01  0.6626E+01
     14.233  0.1538E+00  0.6672E+01
     14.535  0.1270E-03  0.6672E+01
     14.836  0.1149E+01  0.7018E+01
     15.137  0.1323E+01  0.7417E+01
     15.438  0.7751E-01  0.7440E+01
     15.739  0.4224E-01  0.7453E+01
     16.040  0.2763E+00  0.7536E+01
     16.342  0.1168E+00  0.7571E+01
     16.643  0.1521E+01  0.8029E+01
     16.944  0.3637E+00  0.8139E+01
     17.245  0.7606E+00  0.8368E+01
     17.546  0.7812E+00  0.8603E+01
     17.847  0.1974E+01  0.9197E+01
     18.148  0.8511E-02  0.9200E+01
     18.450  0.1736E-10  0.9200E+01
     18.751  0.0000E+00  0.9200E+01
     19.052  0.3016E-10  0.9200E+01
     19.353  0.6077E-02  0.9202E+01
     19.654  0.4575E+00  0.9340E+01
     19.955  0.2948E-01  0.9348E+01
     20.257  0.8218E+00  0.9596E+01
     20.558  0.5377E-01  0.9612E+01
     20.859  0.9947E+00  0.9912E+01
     21.160  0.3994E+00  0.1003E+02
     21.461  0.6235E+00  0.1022E+02
     21.762  0.2075E+01  0.1084E+02
     22.064  0.1306E+01  0.1124E+02
     22.365  0.6703E+00  0.1144E+02
     22.666  0.2775E+00  0.1152E+02
     22.967  0.5726E+00  0.1170E+02
     23.268  0.6576E-04  0.1170E+02
     23.569  0.4277E+00  0.1182E+02
     23.871  0.2096E+01  0.1246E+02
     24.172  0.6372E+00  0.1265E+02
     24.473  0.7839E+00  0.1288E+02
     24.774  0.5178E+00  0.1304E+02
     25.075  0.2503E+00  0.1312E+02
     25.376  0.1750E+00  0.1317E+02
     25.677  0.4900E-01  0.1318E+02
     25.979  0.3297E+01  0.1418E+02
     26.280  0.1072E+00  0.1421E+02
     26.581  0.4825E-08  0.1421E+02
     26.882  0.2389E-05  0.1421E+02
     27.183  0.2632E+00  0.1429E+02
     27.484  0.3978E+00  0.1441E+02
     27.786  0.3517E+00  0.1451E+02
     28.087  0.1333E+01  0.1491E+02
     28.388  0.6391E+00  0.1511E+02
     28.689  0.9650E-01  0.1514E+02
     28.990  0.2461E+00  0.1521E+02
     29.291  0.7587E-01  0.1523E+02
     29.593  0.1180E+01  0.1559E+02
     29.894  0.1148E+01  0.1593E+02
     30.195  0.2291E+00  0.1600E+02
     30.496  0.1728E+01  0.1652E+02
     30.797  0.2249E+00  0.1659E+02
     31.098  0.6522E-01  0.1661E+02
     31.399  0.9394E+00  0.1689E+02
     31.701  0.1205E+01  0.1726E+02
     32.002  0.2265E+01  0.1794E+02
     32.303  0.6280E+00  0.1813E+02
     32.604  0.2482E+00  0.1820E+02
     32.905  0.7150E-01  0.1822E+02
     33.206  0.1455E+01  0.1866E+02
     33.508  0.1414E+01  0.1909E+02
     33.809  0.1244E+01  0.1946E+02
     34.110  0.2094E+00  0.1953E+02
     34.411  0.2977E+00  0.1962E+02
     34.712  0.1016E-02  0.1962E+02
     35.013  0.2328E-03  0.1962E+02
     35.315  0.5167E+00  0.1977E+02
     35.616  0.1206E+00  0.1981E+02
     35.917  0.1378E-01  0.1981E+02
     36.218  0.6157E+00  0.2000E+02
     36.519  0.8049E-02  0.2000E+02
     36.820  0.1096E-09  0.2000E+02
     37.122  0.9714E-02  0.2000E+02
     37.423  0.4237E+00  0.2013E+02
     37.724  0.1274E+01  0.2051E+02
     38.025  0.1417E+01  0.2094E+02
     38.326  0.9167E+00  0.2122E+02
     38.627  0.3069E+00  0.2131E+02
     38.928  0.8857E-02  0.2131E+02
     39.230  0.3550E-04  0.2131E+02
     39.531  0.5355E+00  0.2147E+02
     39.832  0.1473E+01  0.2192E+02
     40.133  0.1168E+00  0.2195E+02
     40.434  0.1908E-01  0.2196E+02
     40.735  0.1257E+01  0.2234E+02
     41.037  0.3697E+00  0.2245E+02
     41.338  0.9937E+00  0.2275E+02
     41.639  0.1337E+01  0.2315E+02
     41.940  0.2432E+00  0.2322E+02
     42.241  0.1953E+01  0.2381E+02
     42.542  0.7384E+00  0.2403E+02
     42.844  0.4832E-01  0.2405E+02
     43.145  0.2088E+00  0.2411E+02
     43.446  0.1537E+01  0.2457E+02
     43.747  0.1349E+01  0.2498E+02
     44.048  0.1006E+01  0.2528E+02
     44.349  0.3535E+01  0.2635E+02
     44.650  0.3882E-01  0.2636E+02
     44.952  0.1233E+01  0.2673E+02
     45.253  0.6283E+00  0.2692E+02
     45.554  0.1617E+01  0.2741E+02
     45.855  0.6126E+00  0.2759E+02
     46.156  0.1669E+01  0.2809E+02
     46.457  0.6783E+00  0.2830E+02
     46.759  0.1932E-01  0.2830E+02
     47.060  0.1333E-06  0.2830E+02
     47.361  0.2238E+00  0.2837E+02
     47.662  0.1089E+01  0.2870E+02
     47.963  0.2114E+01  0.2934E+02
     48.264  0.1904E+00  0.2939E+02
     48.566  0.6082E+00  0.2958E+02
     48.867  0.2542E-01  0.2958E+02
     49.168  0.5870E-09  0.2958E+02
     49.469  0.2296E-07  0.2958E+02
     49.770  0.9215E-01  0.2961E+02
     50.071  0.1879E+01  0.3018E+02
     50.372  0.2972E+00  0.3027E+02
     50.674  0.1227E+01  0.3064E+02
     50.975  0.1139E-01  0.3064E+02
     51.276  0.6328E-10  0.3064E+02
     51.577  0.1416E-15  0.3064E+02
     51.878  0.4447E-04  0.3064E+02
     52.179  0.7790E+00  0.3087E+02
     52.481  0.7269E+00  0.3109E+02
     52.782  0.4148E+00  0.3122E+02
     53.083  0.2079E+01  0.3184E+02
     53.384  0.3413E+01  0.3287E+02
     53.685  0.8784E+00  0.3314E+02
     53.986  0.1086E+01  0.3346E+02
     54.288  0.2644E+01  0.3426E+02
     54.589  0.4426E+00  0.3439E+02
     54.890  0.4994E+00  0.3454E+02
     55.191  0.1630E-03  0.3454E+02
     55.492  0.5699E-07  0.3454E+02
     55.793  0.1763E+00  0.3460E+02
     56.095  0.1098E+01  0.3493E+02
     56.396  0.8427E-02  0.3493E+02
     56.697  0.1650E+01  0.3543E+02
     56.998  0.2338E+01  0.3613E+02
     57.299  0.2595E+01  0.3691E+02
     57.600  0.8366E+00  0.3716E+02
     57.901  0.1073E-01  0.3717E+02
     58.203  0.1211E+00  0.3720E+02
     58.504  0.3039E+00  0.3730E+02
     58.805  0.1403E-01  0.3730E+02
     59.106  0.6858E+00  0.3751E+02
     59.407  0.2707E+01  0.3832E+02
     59.708  0.9975E-01  0.3835E+02
     60.010  0.5538E+00  0.3852E+02
     60.311  0.3852E+00  0.3863E+02
     60.612  0.6786E+00  0.3884E+02
     60.913  0.1233E+01  0.3921E+02
     61.214  0.4292E+00  0.3934E+02
     61.515  0.2146E+01  0.3999E+02
     61.817  0.1561E+01  0.4046E+02
     62.118  0.6359E+00  0.4065E+02
     62.419  0.3982E+00  0.4077E+02
     62.720  0.5456E-01  0.4078E+02
     63.021  0.5391E+00  0.4095E+02
     63.322  0.1585E+01  0.4142E+02
     63.623  0.2301E-02  0.4142E+02
     63.925  0.1219E+01  0.4179E+02
     64.226  0.8480E+00  0.4205E+02
     64.527  0.4118E-02  0.4205E+02
     64.828  0.1673E-08  0.4205E+02
     65.129  0.2265E-01  0.4205E+02
     65.430  0.2953E+00  0.4214E+02
     65.732  0.4878E+00  0.4229E+02
     66.033  0.1166E+01  0.4264E+02
     66.334  0.2171E+01  0.4330E+02
     66.635  0.6767E+00  0.4350E+02
     66.936  0.8110E+00  0.4374E+02
     67.237  0.7414E+00  0.4397E+02
     67.539  0.3847E+01  0.4513E+02
     67.840  0.1405E+00  0.4517E+02
     68.141  0.6467E-03  0.4517E+02
     68.442  0.1383E+01  0.4558E+02
     68.743  0.6335E+00  0.4578E+02
     69.044  0.2963E+00  0.4586E+02
     69.345  0.1272E+01  0.4625E+02
     69.647  0.8296E+00  0.4650E+02
     69.948  0.4759E-01  0.4651E+02
     70.249  0.3609E-04  0.4651E+02
     70.550  0.3293E+00  0.4661E+02
     70.851  0.4141E+00  0.4674E+02
     71.152  0.3970E-03  0.4674E+02
     71.454  0.6976E+00  0.4695E+02
     71.755  0.6576E+00  0.4714E+02
     72.056  0.5568E+00  0.4731E+02
     72.357  0.1474E-01  0.4732E+02
     72.658  0.4103E+00  0.4744E+02
     72.959  0.7973E+00  0.4768E+02
     73.261  0.5326E-01  0.4770E+02
     73.562  0.2835E+00  0.4778E+02
     73.863  0.4071E+00  0.4790E+02
     74.164  0.2507E-04  0.4790E+02
     74.465  0.0000E+00  0.4790E+02
     74.766  0.0000E+00  0.4790E+02
     75.068  0.0000E+00  0.4790E+02
     75.369  0.0000E+00  0.4790E+02
     75.670  0.0000E+00  0.4790E+02
     75.971  0.0000E+00  0.4790E+02
     76.272  0.1009E-08  0.4790E+02
     76.573  0.1936E-01  0.4791E+02
     76.874  0.2983E+00  0.4800E+02
     77.176  0.1071E-02  0.4800E+02
     77.477  0.5076E-12  0.4800E+02
     77.778  0.0000E+00  0.4800E+02
     78.079  0.0000E+00  0.4800E+02
     78.380  0.0000E+00  0.4800E+02
     78.681  0.0000E+00  0.4800E+02
     78.983  0.0000E+00  0.4800E+02
     79.284  0.0000E+00  0.4800E+02
     79.585  0.0000E+00  0.4800E+02
     79.886  0.0000E+00  0.4800E+02
     80.187  0.0000E+00  0.4800E+02
     80.488  0.0000E+00  0.4800E+02
     80.790  0.0000E+00  0.4800E+02
