<?xml version="1.0" encoding="ISO-8859-1"?>
<modeling>
 <generator>
  <i name="program" type="string">vasp </i>
  <i name="version" type="string">5.4.4.18Apr17-6-g9f103f2a35  </i>
  <i name="subversion" type="string">(build Oct 25 2017 14:23:52) complex            parallel </i>
  <i name="platform" type="string">LinuxIFC </i>
  <i name="date" type="string">2022 02 20 </i>
  <i name="time" type="string">14:44:02 </i>
 </generator>
 <incar>
  <i type="string" name="SYSTEM"> fcc Si</i>
  <i type="int" name="ISTART">     0</i>
  <i type="string" name="PREC">normal</i>
  <i type="int" name="ICHARG">     2</i>
  <i name="ENCUT">    240.00000000</i>
  <i type="int" name="ISMEAR">     0</i>
  <i name="SIGMA">      0.10000000</i>
  <v type="int" name="KPOINT_BSE">    -1     0     0     0</v>
 </incar>
 <structure name="primitive_cell" >
  <crystal>
   <varray name="basis" >
    <v>       1.95000000       1.95000000       0.00000000 </v>
    <v>       0.00000000       1.95000000       1.95000000 </v>
    <v>       1.95000000       0.00000000       1.95000000 </v>
   </varray>
   <i name="volume">     14.82975000 </i>
   <varray name="rec_basis" >
    <v>       0.25641026       0.25641026      -0.25641026 </v>
    <v>      -0.25641026       0.25641026       0.25641026 </v>
    <v>       0.25641026      -0.25641026       0.25641026 </v>
   </varray>
  </crystal>
  <varray name="positions" >
   <v>       0.00000000       0.00000000       0.00000000 </v>
  </varray>
 </structure>
 <varray name="primitive_index" >
  <v type="int" >        1 </v>
 </varray>
 <kpoints>
  <generation param="Monkhorst-Pack">
   <v type="int" name="divisions">       5        5        5 </v>
   <v name="usershift">      0.00000000       0.00000000       0.00000000 </v>
   <v name="genvec1">      0.20000000       0.00000000       0.00000000 </v>
   <v name="genvec2">      0.00000000       0.20000000       0.00000000 </v>
   <v name="genvec3">      0.00000000       0.00000000       0.20000000 </v>
   <v name="shift">      0.00000000       0.00000000       0.00000000 </v>
  </generation>
  <varray name="kpointlist" >
   <v>       0.00000000       0.00000000       0.00000000 </v>
   <v>       0.20000000       0.00000000       0.00000000 </v>
   <v>       0.40000000       0.00000000       0.00000000 </v>
   <v>       0.20000000       0.20000000       0.00000000 </v>
   <v>       0.40000000       0.20000000       0.00000000 </v>
   <v>      -0.40000000       0.20000000       0.00000000 </v>
   <v>      -0.20000000       0.20000000       0.00000000 </v>
   <v>       0.40000000       0.40000000       0.00000000 </v>
   <v>      -0.40000000       0.40000000       0.00000000 </v>
   <v>      -0.40000000       0.40000000       0.20000000 </v>
  </varray>
  <varray name="weights" >
   <v>       0.00800000 </v>
   <v>       0.06400000 </v>
   <v>       0.06400000 </v>
   <v>       0.04800000 </v>
   <v>       0.19200000 </v>
   <v>       0.19200000 </v>
   <v>       0.09600000 </v>
   <v>       0.04800000 </v>
   <v>       0.09600000 </v>
   <v>       0.19200000 </v>
  </varray>
 </kpoints>
 <parameters>
  <separator name="general" >
   <i type="string" name="SYSTEM">fcc Si</i>
   <i type="logical" name="LCOMPAT"> F  </i>
  </separator>
  <separator name="electronic" >
   <i type="string" name="PREC">normal</i>
   <i name="ENMAX">    240.00000000</i>
   <i name="ENAUG">    241.91900000</i>
   <i name="EDIFF">      0.00010000</i>
   <i type="int" name="IALGO">    38</i>
   <i type="int" name="IWAVPR">    10</i>
   <i type="int" name="NBANDS">    24</i>
   <i name="NELECT">      4.00000000</i>
   <i type="int" name="TURBO">     0</i>
   <i type="int" name="IRESTART">     0</i>
   <i type="int" name="NREBOOT">     0</i>
   <i type="int" name="NMIN">     0</i>
   <i name="EREF">      0.00000000</i>
   <separator name="electronic smearing" >
    <i type="int" name="ISMEAR">     0</i>
    <i name="SIGMA">      0.10000000</i>
    <i name="KSPACING">      0.50000000</i>
    <i type="logical" name="KGAMMA"> T  </i>
   </separator>
   <separator name="electronic projectors" >
    <i type="logical" name="LREAL"> F  </i>
    <v name="ROPT">      0.00000000</v>
    <i type="int" name="LMAXPAW">  -100</i>
    <i type="int" name="LMAXMIX">     2</i>
    <i type="logical" name="NLSPLINE"> F  </i>
   </separator>
   <separator name="electronic startup" >
    <i type="int" name="ISTART">     0</i>
    <i type="int" name="ICHARG">     2</i>
    <i type="int" name="INIWAV">     1</i>
   </separator>
   <separator name="electronic spin" >
    <i type="int" name="ISPIN">     1</i>
    <i type="logical" name="LNONCOLLINEAR"> F  </i>
    <v name="MAGMOM">      1.00000000</v>
    <i name="NUPDOWN">     -1.00000000</i>
    <i type="logical" name="LSORBIT"> F  </i>
    <v name="SAXIS">      0.00000000      0.00000000      1.00000000</v>
    <i type="logical" name="LSPIRAL"> F  </i>
    <v name="QSPIRAL">      0.00000000      0.00000000      0.00000000</v>
    <i type="logical" name="LZEROZ"> F  </i>
   </separator>
   <separator name="electronic exchange-correlation" >
    <i type="logical" name="LASPH"> F  </i>
    <i type="logical" name="LMETAGGA"> F  </i>
   </separator>
   <separator name="electronic convergence" >
    <i type="int" name="NELM">    60</i>
    <i type="int" name="NELMDL">    -5</i>
    <i type="int" name="NELMIN">     2</i>
    <i name="ENINI">    240.00000000</i>
    <separator name="electronic convergence detail" >
     <i type="logical" name="LDIAG"> T  </i>
     <i type="logical" name="LSUBROT"> F  </i>
     <i name="WEIMIN">      0.00000000</i>
     <i name="EBREAK">      0.00000104</i>
     <i name="DEPER">      0.30000000</i>
     <i type="int" name="NRMM">     4</i>
     <i name="TIME">      0.40000000</i>
    </separator>
   </separator>
   <separator name="electronic mixer" >
    <i name="AMIX">      0.80000000</i>
    <i name="BMIX">      1.00000000</i>
    <i name="AMIN">      0.10000000</i>
    <i name="AMIX_MAG">      3.20000000</i>
    <i name="BMIX_MAG">      1.00000000</i>
    <separator name="electronic mixer details" >
     <i type="int" name="IMIX">     4</i>
     <i type="logical" name="MIXFIRST"> F  </i>
     <i type="int" name="MAXMIX">   -45</i>
     <i name="WC">    100.00000000</i>
     <i type="int" name="INIMIX">     1</i>
     <i type="int" name="MIXPRE">     1</i>
     <i type="int" name="MREMOVE">     5</i>
    </separator>
   </separator>
   <separator name="electronic dipolcorrection" >
    <i type="logical" name="LDIPOL"> F  </i>
    <i type="logical" name="LMONO"> F  </i>
    <i type="int" name="IDIPOL">     0</i>
    <i name="EPSILON">      1.00000000</i>
    <v name="DIPOL">   -100.00000000   -100.00000000   -100.00000000</v>
    <i name="EFIELD">      0.00000000</i>
   </separator>
  </separator>
  <separator name="grids" >
   <i type="int" name="NGX">    10</i>
   <i type="int" name="NGY">    10</i>
   <i type="int" name="NGZ">    10</i>
   <i type="int" name="NGXF">    20</i>
   <i type="int" name="NGYF">    20</i>
   <i type="int" name="NGZF">    20</i>
   <i type="logical" name="ADDGRID"> F  </i>
  </separator>
  <separator name="ionic" >
   <i type="int" name="NSW">     0</i>
   <i type="int" name="IBRION">    -1</i>
   <i type="int" name="MDALGO">     0</i>
   <i type="int" name="ISIF">     2</i>
   <i name="PSTRESS">      0.00000000</i>
   <i name="EDIFFG">      0.00100000</i>
   <i type="int" name="NFREE">     0</i>
   <i name="POTIM">      0.50000000</i>
   <i name="SMASS">     -3.00000000</i>
   <i name="SCALEE">      1.00000000</i>
  </separator>
  <separator name="ionic md" >
   <i name="TEBEG">      0.00010000</i>
   <i name="TEEND">      0.00010000</i>
   <i type="int" name="NBLOCK">     1</i>
   <i type="int" name="KBLOCK">     1</i>
   <i type="int" name="NPACO">   256</i>
   <i name="APACO">     16.00000000</i>
  </separator>
  <separator name="symmetry" >
   <i type="int" name="ISYM">     1</i>
   <i name="SYMPREC">      0.00001000</i>
  </separator>
  <separator name="dos" >
   <i type="int" name="LORBIT">     0</i>
   <v name="RWIGS">     -1.00000000</v>
   <i type="int" name="NEDOS">   301</i>
   <i name="EMIN">     10.00000000</i>
   <i name="EMAX">    -10.00000000</i>
   <i name="EFERMI">      0.00000000</i>
  </separator>
  <separator name="writing" >
   <i type="int" name="NWRITE">     2</i>
   <i type="logical" name="LWAVE"> T  </i>
   <i type="logical" name="LDOWNSAMPLE"> F  </i>
   <i type="logical" name="LCHARG"> T  </i>
   <i type="logical" name="LPARD"> F  </i>
   <i type="logical" name="LVTOT"> F  </i>
   <i type="logical" name="LVHAR"> F  </i>
   <i type="logical" name="LELF"> F  </i>
   <i type="logical" name="LOPTICS"> F  </i>
   <v name="STM">      0.00000000      0.00000000      0.00000000      0.00000000      0.00000000      0.00000000      0.00000000</v>
  </separator>
  <separator name="performance" >
   <i type="int" name="NPAR">    24</i>
   <i type="int" name="NSIM">     4</i>
   <i type="int" name="NBLK">    -1</i>
   <i type="logical" name="LPLANE"> T  </i>
   <i type="logical" name="LSCALAPACK"> F  </i>
   <i type="logical" name="LSCAAWARE"> F  </i>
   <i type="logical" name="LSCALU"> F  </i>
   <i type="logical" name="LASYNC"> F  </i>
   <i type="logical" name="LORBITALREAL"> F  </i>
  </separator>
  <separator name="miscellaneous" >
   <i type="int" name="IDIOT">     3</i>
   <i type="int" name="ISPECIAL">     0</i>
   <i type="logical" name="LMUSIC"> F  </i>
   <v name="POMASS">     28.08500000</v>
   <v name="DARWINR">      0.00000000</v>
   <v name="DARWINV">      1.00000000</v>
   <i type="logical" name="LCORR"> T  </i>
  </separator>
  <i type="logical" name="GGA_COMPAT"> T  </i>
  <i type="logical" name="LBERRY"> F  </i>
  <i type="int" name="ICORELEVEL">     0</i>
  <i type="logical" name="LDAU"> F  </i>
  <i type="int" name="I_CONSTRAINED_M">     0</i>
  <separator name="electronic exchange-correlation" >
   <i type="string" name="GGA">--</i>
   <i type="int" name="VOSKOWN">     0</i>
   <i type="logical" name="LHFCALC"> F  </i>
   <i type="string" name="PRECFOCK"></i>
   <i type="logical" name="LSYMGRAD"> F  </i>
   <i type="logical" name="LHFONE"> F  </i>
   <i type="logical" name="LRHFCALC"> F  </i>
   <i type="logical" name="LTHOMAS"> F  </i>
   <i type="logical" name="LMODELHF"> F  </i>
   <i name="ENCUT4O">     -1.00000000</i>
   <i type="int" name="EXXOEP">     0</i>
   <i type="int" name="FOURORBIT">     0</i>
   <i name="AEXX">      0.00000000</i>
   <i name="HFALPHA">      0.00000000</i>
   <i name="MCALPHA">      0.00000000</i>
   <i name="ALDAX">      1.00000000</i>
   <i name="AGGAX">      1.00000000</i>
   <i name="ALDAC">      1.00000000</i>
   <i name="AGGAC">      1.00000000</i>
   <i type="int" name="NKREDX">     1</i>
   <i type="int" name="NKREDY">     1</i>
   <i type="int" name="NKREDZ">     1</i>
   <i type="logical" name="SHIFTRED"> F  </i>
   <i type="logical" name="ODDONLY"> F  </i>
   <i type="logical" name="EVENONLY"> F  </i>
   <i type="int" name="LMAXFOCK">     0</i>
   <i type="int" name="NMAXFOCKAE">     0</i>
   <i type="logical" name="LFOCKAEDFT"> F  </i>
   <i name="HFSCREEN">      0.00000000</i>
   <i name="HFSCREENC">      0.00000000</i>
   <i type="int" name="NBANDSGWLOW">     0</i>
  </separator>
  <separator name="vdW DFT" >
   <i type="logical" name="LUSE_VDW"> F  </i>
   <i name="Zab_VDW">     -0.84910000</i>
   <i name="PARAM1">      0.12340000</i>
   <i name="PARAM2">      1.00000000</i>
   <i name="PARAM3">      0.00000000</i>
  </separator>
  <separator name="model GW" >
   <i type="int" name="MODEL_GW">     0</i>
   <i name="MODEL_EPS0">      8.89785000</i>
   <i name="MODEL_ALPHA">      1.00000000</i>
  </separator>
  <separator name="linear response parameters" >
   <i type="logical" name="LEPSILON"> F  </i>
   <i type="logical" name="LRPA"> F  </i>
   <i type="logical" name="LNABLA"> F  </i>
   <i type="logical" name="LVEL"> F  </i>
   <i type="int" name="KINTER">     0</i>
   <i name="CSHIFT">      0.10000000</i>
   <i name="OMEGAMAX">     -1.00000000</i>
   <i name="DEG_THRESHOLD">      0.00200000</i>
   <i name="RTIME">     -0.10000000</i>
   <i name="WPLASMAI">      0.00000000</i>
   <v name="DFIELD">      0.00000000      0.00000000      0.00000000</v>
   <v name="WPLASMA">      0.00000000      0.00000000      0.00000000      0.00000000      0.00000000      0.00000000      0.00000000      0.00000000      0.00000000</v>
  </separator>
  <separator name="orbital magnetization" >
   <i type="logical" name="NUCIND"> F  </i>
   <v name="MAGPOS">      0.00000000      0.00000000      0.00000000</v>
   <i type="logical" name="LNICSALL"> T  </i>
   <i type="logical" name="ORBITALMAG"> F  </i>
   <i type="logical" name="LMAGBLOCH"> F  </i>
   <i type="logical" name="LCHIMAG"> F  </i>
   <i type="logical" name="LGAUGE"> T  </i>
   <i type="int" name="MAGATOM">     0</i>
   <v name="MAGDIPOL">      0.00000000      0.00000000      0.00000000</v>
   <v name="AVECCONST">      0.00000000      0.00000000      0.00000000</v>
  </separator>
  <separator name="response functions" >
   <i type="logical" name="LADDER"> F  </i>
   <i type="logical" name="LRPAFORCE"> F  </i>
   <i type="logical" name="LFXC"> F  </i>
   <i type="logical" name="LHARTREE"> T  </i>
   <i type="int" name="IBSE">     0</i>
   <v type="int" name="KPOINT">    -1     0     0     0</v>
   <i type="logical" name="LTCTE"> F  </i>
   <i type="logical" name="LTETE"> F  </i>
   <i type="logical" name="LTRIPLET"> F  </i>
   <i type="logical" name="LFXCEPS"> F  </i>
   <i type="logical" name="LFXHEG"> F  </i>
   <i type="int" name="NATURALO">     2</i>
   <i type="logical" name="L2ORDER"> F  </i>
   <i type="logical" name="LMP2LT"> F  </i>
   <i type="logical" name="LUSEW"> F  </i>
   <i name="ENCUTGW">     -2.00000000</i>
   <i name="ENCUTGWSOFT">     -2.00000000</i>
   <i name="ENCUTLF">     -1.00000000</i>
   <i type="int" name="LMAXMP2">    -1</i>
   <i name="SCISSOR">      0.00000000</i>
   <i type="int" name="NOMEGA">     0</i>
   <i type="int" name="NOMEGAR">     0</i>
   <i type="int" name="NBANDSGW">    -1</i>
   <i type="int" name="NBANDSO">    -1</i>
   <i type="int" name="NBANDSV">    -1</i>
   <i type="int" name="NELM">     1</i>
   <i type="int" name="NELMHF">     1</i>
   <i type="int" name="DIM">     3</i>
   <i type="int" name="ANTIRES">     0</i>
   <i name="OMEGAMAX">    -30.00000000</i>
   <i name="OMEGAMIN">    -30.00000000</i>
   <i name="OMEGATL">   -200.00000000</i>
   <i type="int" name="OMEGAGRID">   140</i>
   <i name="CSHIFT">     -0.10000000</i>
   <i type="logical" name="SELFENERGY"> F  </i>
   <i type="logical" name="LSPECTRAL"> F  </i>
   <i type="logical" name="LSPECTRALGW"> F  </i>
   <i type="logical" name="LSINGLES"> F  </i>
   <i type="logical" name="LFERMIGW"> F  </i>
   <i type="logical" name="ODDONLYGW"> F  </i>
   <i type="logical" name="EVENONLYGW"> F  </i>
   <i type="int" name="NKREDLFX">     1</i>
   <i type="int" name="NKREDLFY">     1</i>
   <i type="int" name="NKREDLFZ">     1</i>
   <i type="int" name="MAXMEM">  2800</i>
   <i type="int" name="TELESCOPE">     0</i>
   <i type="int" name="TAUPAR">     1</i>
   <i type="int" name="OMEGAPAR">    -1</i>
   <i name="LAMBDA">      1.00000000</i>
  </separator>
  <separator name="External order field" >
   <i name="OFIELD_KAPPA">      0.00000000</i>
   <v name="OFIELD_K">      0.00000000      0.00000000      0.00000000</v>
   <i name="OFIELD_Q6_NEAR">      0.00000000</i>
   <i name="OFIELD_Q6_FAR">      0.00000000</i>
   <i name="OFIELD_A">      0.00000000</i>
  </separator>
 </parameters>
 <atominfo>
  <atoms>       1 </atoms>
  <types>       1 </types>
  <array name="atoms" >
   <dimension dim="1">ion</dimension>
   <field type="string">element</field>
   <field type="int">atomtype</field>
   <set>
    <rc><c>Si</c><c>   1</c></rc>
   </set>
  </array>
  <array name="atomtypes" >
   <dimension dim="1">type</dimension>
   <field type="int">atomspertype</field>
   <field type="string">element</field>
   <field>mass</field>
   <field>valence</field>
   <field type="string">pseudopotential</field>
   <set>
    <rc><c>   1</c><c>Si</c><c>     28.08500000</c><c>      4.00000000</c><c>  US Si                                 </c></rc>
   </set>
  </array>
 </atominfo>
 <structure name="initialpos" >
  <crystal>
   <varray name="basis" >
    <v>       1.95000000       1.95000000       0.00000000 </v>
    <v>       0.00000000       1.95000000       1.95000000 </v>
    <v>       1.95000000       0.00000000       1.95000000 </v>
   </varray>
   <i name="volume">     14.82975000 </i>
   <varray name="rec_basis" >
    <v>       0.25641026       0.25641026      -0.25641026 </v>
    <v>      -0.25641026       0.25641026       0.25641026 </v>
    <v>       0.25641026      -0.25641026       0.25641026 </v>
   </varray>
  </crystal>
  <varray name="positions" >
   <v>       0.00000000       0.00000000       0.00000000 </v>
  </varray>
 </structure>
 <calculation>
  <scstep>
   <time name="dav">    0.12    0.12</time>
   <time name="total">    0.12    0.13</time>
   <energy>
    <i name="alphaZ">      6.57272307 </i>
    <i name="ewald">   -135.42777035 </i>
    <i name="hartreedc">     -0.64282688 </i>
    <i name="XCdc">     -3.93264667 </i>
    <i name="pawpsdc">      0.00000000 </i>
    <i name="pawaedc">      0.00000000 </i>
    <i name="eentropy">     -0.01507950 </i>
    <i name="bandstr">     12.89656055 </i>
    <i name="atom">    115.83181990 </i>
    <i name="e_fr_energy">     -4.71721988 </i>
    <i name="e_wo_entrp">     -4.70214038 </i>
    <i name="e_0_energy">     -4.70968013 </i>
   </energy>
  </scstep>
  <scstep>
   <time name="dav">    0.08    0.09</time>
   <time name="total">    0.08    0.09</time>
   <energy>
    <i name="e_fr_energy">     -4.73312619 </i>
    <i name="e_wo_entrp">     -4.71805973 </i>
    <i name="e_0_energy">     -4.72559296 </i>
   </energy>
  </scstep>
  <scstep>
   <time name="dav">    0.17    0.18</time>
   <time name="total">    0.17    0.18</time>
   <energy>
    <i name="e_fr_energy">     -4.73312659 </i>
    <i name="e_wo_entrp">     -4.71806014 </i>
    <i name="e_0_energy">     -4.72559336 </i>
   </energy>
  </scstep>
  <scstep>
   <time name="dav">    0.09    0.09</time>
   <time name="total">    0.09    0.09</time>
   <energy>
    <i name="e_fr_energy">     -4.73312659 </i>
    <i name="e_wo_entrp">     -4.71806014 </i>
    <i name="e_0_energy">     -4.72559336 </i>
   </energy>
  </scstep>
  <scstep>
   <time name="dav">    0.04    0.04</time>
   <time name="total">    0.04    0.04</time>
   <energy>
    <i name="e_fr_energy">     -4.73312659 </i>
    <i name="e_wo_entrp">     -4.71806014 </i>
    <i name="e_0_energy">     -4.72559336 </i>
   </energy>
  </scstep>
  <scstep>
   <time name="dav">    0.08    0.08</time>
   <time name="total">    0.08    0.09</time>
   <energy>
    <i name="e_fr_energy">     -4.71817025 </i>
    <i name="e_wo_entrp">     -4.70339414 </i>
    <i name="e_0_energy">     -4.71078219 </i>
   </energy>
  </scstep>
  <scstep>
   <time name="dav">    0.08    0.08</time>
   <time name="total">    0.29    0.29</time>
   <energy>
    <i name="e_fr_energy">     -4.71774758 </i>
    <i name="e_wo_entrp">     -4.70306528 </i>
    <i name="e_0_energy">     -4.71040643 </i>
   </energy>
  </scstep>
  <scstep>
   <time name="dav">    0.03    0.03</time>
   <time name="total">    0.03    0.04</time>
   <energy>
    <i name="alphaZ">      6.57272307 </i>
    <i name="ewald">   -135.42777035 </i>
    <i name="hartreedc">     -0.52202719 </i>
    <i name="XCdc">     -3.87047555 </i>
    <i name="pawpsdc">      0.00000000 </i>
    <i name="pawaedc">      0.00000000 </i>
    <i name="eentropy">     -0.01468438 </i>
    <i name="bandstr">     12.71266720 </i>
    <i name="atom">    115.83181990 </i>
    <i name="e_fr_energy">     -4.71774731 </i>
    <i name="e_wo_entrp">     -4.70306293 </i>
    <i name="e_0_energy">     -4.71040512 </i>
   </energy>
  </scstep>
  <structure>
   <crystal>
    <varray name="basis" >
     <v>       1.95000000       1.95000000       0.00000000 </v>
     <v>       0.00000000       1.95000000       1.95000000 </v>
     <v>       1.95000000       0.00000000       1.95000000 </v>
    </varray>
    <i name="volume">     14.82975000 </i>
    <varray name="rec_basis" >
     <v>       0.25641026       0.25641026      -0.25641026 </v>
     <v>      -0.25641026       0.25641026       0.25641026 </v>
     <v>       0.25641026      -0.25641026       0.25641026 </v>
    </varray>
   </crystal>
   <varray name="positions" >
    <v>       0.00000000       0.00000000       0.00000000 </v>
   </varray>
  </structure>
  <varray name="forces" >
   <v>       0.00000000       0.00000000       0.00000000 </v>
  </varray>
  <varray name="stress" >
   <v>      31.39620182      -0.00000000       0.00000000 </v>
   <v>       0.00000000      31.39620182       0.00000000 </v>
   <v>      -0.00000000       0.00000000      31.39620182 </v>
  </varray>
  <energy>
   <i name="e_fr_energy">     -4.71774731 </i>
   <i name="e_wo_entrp">     -4.71040512 </i>
   <i name="e_0_energy">     -0.01468438 </i>
  </energy>
  <time name="totalsc">    0.98    3.42</time>
  <eigenvalues>
   <array>
    <dimension dim="1">band</dimension>
    <dimension dim="2">kpoint</dimension>
    <dimension dim="3">spin</dimension>
    <field>eigene</field>
    <field>occ</field>
    <set>
     <set comment="spin 1">
      <set comment="kpoint 1">
       <r>   -5.4514    1.0000 </r>
       <r>   19.5441    0.0000 </r>
       <r>   19.5441    0.0000 </r>
       <r>   19.5441    0.0000 </r>
       <r>   20.6703    0.0000 </r>
       <r>   20.6703    0.0000 </r>
       <r>   20.6703    0.0000 </r>
       <r>   25.8946    0.0000 </r>
       <r>   27.5387    0.0000 </r>
       <r>   27.5387    0.0000 </r>
       <r>   30.6750    0.0000 </r>
       <r>   33.7158    0.0000 </r>
       <r>   33.7159    0.0000 </r>
       <r>   33.7159    0.0000 </r>
       <r>   40.8601    0.0000 </r>
       <r>   64.0880    0.0000 </r>
       <r>   64.0880    0.0000 </r>
       <r>   64.0882    0.0000 </r>
       <r>   67.4127    0.0000 </r>
       <r>   67.4150    0.0000 </r>
       <r>   67.4150    0.0000 </r>
       <r>   67.5665    0.0000 </r>
       <r>   67.5665    0.0000 </r>
       <r>   73.6114    0.0000 </r>
      </set>
      <set comment="kpoint 2">
       <r>   -4.3100    1.0000 </r>
       <r>   12.0457    0.0000 </r>
       <r>   17.6817    0.0000 </r>
       <r>   17.6818    0.0000 </r>
       <r>   21.7661    0.0000 </r>
       <r>   22.6976    0.0000 </r>
       <r>   22.6978    0.0000 </r>
       <r>   25.8189    0.0000 </r>
       <r>   25.8192    0.0000 </r>
       <r>   28.3349    0.0000 </r>
       <r>   31.7662    0.0000 </r>
       <r>   37.2628    0.0000 </r>
       <r>   39.5078    0.0000 </r>
       <r>   39.5078    0.0000 </r>
       <r>   46.0167    0.0000 </r>
       <r>   53.3877    0.0000 </r>
       <r>   53.3880    0.0000 </r>
       <r>   58.2428    0.0000 </r>
       <r>   66.7220    0.0000 </r>
       <r>   66.7259    0.0000 </r>
       <r>   68.3684    0.0000 </r>
       <r>   72.4868    0.0000 </r>
       <r>   72.8502    0.0000 </r>
       <r>   72.8518    0.0000 </r>
      </set>
      <set comment="kpoint 3">
       <r>   -0.9335    1.0000 </r>
       <r>    4.6482    1.0000 </r>
       <r>   17.0329    0.0000 </r>
       <r>   17.0329    0.0000 </r>
       <r>   20.1044    0.0000 </r>
       <r>   20.1046    0.0000 </r>
       <r>   21.7316    0.0000 </r>
       <r>   25.0594    0.0000 </r>
       <r>   31.2003    0.0000 </r>
       <r>   31.2008    0.0000 </r>
       <r>   38.0664    0.0000 </r>
       <r>   42.1690    0.0000 </r>
       <r>   42.1691    0.0000 </r>
       <r>   47.9343    0.0000 </r>
       <r>   49.8448    0.0000 </r>
       <r>   50.4133    0.0000 </r>
       <r>   50.4135    0.0000 </r>
       <r>   57.2385    0.0000 </r>
       <r>   62.3386    0.0000 </r>
       <r>   63.0307    0.0000 </r>
       <r>   63.0312    0.0000 </r>
       <r>   69.2918    0.0000 </r>
       <r>   69.2953    0.0000 </r>
       <r>   70.5149    0.0000 </r>
      </set>
      <set comment="kpoint 4">
       <r>   -3.9302    1.0000 </r>
       <r>   14.8546    0.0000 </r>
       <r>   14.8547    0.0000 </r>
       <r>   16.3663    0.0000 </r>
       <r>   16.5752    0.0000 </r>
       <r>   19.5025    0.0000 </r>
       <r>   27.1988    0.0000 </r>
       <r>   27.1988    0.0000 </r>
       <r>   28.9375    0.0000 </r>
       <r>   33.1017    0.0000 </r>
       <r>   34.2182    0.0000 </r>
       <r>   36.0598    0.0000 </r>
       <r>   36.0598    0.0000 </r>
       <r>   38.4919    0.0000 </r>
       <r>   49.9819    0.0000 </r>
       <r>   53.6538    0.0000 </r>
       <r>   53.6539    0.0000 </r>
       <r>   53.9392    0.0000 </r>
       <r>   61.6762    0.0000 </r>
       <r>   65.2331    0.0000 </r>
       <r>   70.6362    0.0000 </r>
       <r>   71.8345    0.0000 </r>
       <r>   71.8372    0.0000 </r>
       <r>   76.6828    0.0000 </r>
      </set>
      <set comment="kpoint 5">
       <r>   -1.2980    1.0000 </r>
       <r>    7.8475    0.7855 </r>
       <r>   13.0223    0.0000 </r>
       <r>   13.8494    0.0000 </r>
       <r>   16.5762    0.0000 </r>
       <r>   22.0681    0.0000 </r>
       <r>   25.8233    0.0000 </r>
       <r>   28.0376    0.0000 </r>
       <r>   31.8764    0.0000 </r>
       <r>   33.1927    0.0000 </r>
       <r>   39.7378    0.0000 </r>
       <r>   42.0889    0.0000 </r>
       <r>   43.4299    0.0000 </r>
       <r>   44.0818    0.0000 </r>
       <r>   45.3700    0.0000 </r>
       <r>   47.7980    0.0000 </r>
       <r>   55.8703    0.0000 </r>
       <r>   56.8995    0.0000 </r>
       <r>   59.2399    0.0000 </r>
       <r>   60.7582    0.0000 </r>
       <r>   63.1021    0.0000 </r>
       <r>   67.3240    0.0000 </r>
       <r>   68.3844    0.0000 </r>
       <r>   71.4452    0.0000 </r>
      </set>
      <set comment="kpoint 6">
       <r>    1.6203    1.0000 </r>
       <r>    3.5886    1.0000 </r>
       <r>   10.7055    0.0000 </r>
       <r>   14.7979    0.0000 </r>
       <r>   17.6034    0.0000 </r>
       <r>   23.7260    0.0000 </r>
       <r>   25.8670    0.0000 </r>
       <r>   29.4893    0.0000 </r>
       <r>   30.3652    0.0000 </r>
       <r>   31.4822    0.0000 </r>
       <r>   37.5857    0.0000 </r>
       <r>   44.1468    0.0000 </r>
       <r>   44.1554    0.0000 </r>
       <r>   47.4268    0.0000 </r>
       <r>   52.1595    0.0000 </r>
       <r>   53.1996    0.0000 </r>
       <r>   54.0899    0.0000 </r>
       <r>   56.9592    0.0000 </r>
       <r>   57.1740    0.0000 </r>
       <r>   61.3582    0.0000 </r>
       <r>   61.6669    0.0000 </r>
       <r>   63.9245    0.0000 </r>
       <r>   66.0961    0.0000 </r>
       <r>   66.1190    0.0000 </r>
      </set>
      <set comment="kpoint 7">
       <r>   -2.4221    1.0000 </r>
       <r>    9.9634    0.0000 </r>
       <r>   10.7102    0.0000 </r>
       <r>   17.4942    0.0000 </r>
       <r>   20.6744    0.0000 </r>
       <r>   23.5696    0.0000 </r>
       <r>   23.6441    0.0000 </r>
       <r>   24.5356    0.0000 </r>
       <r>   27.7996    0.0000 </r>
       <r>   33.7284    0.0000 </r>
       <r>   35.2522    0.0000 </r>
       <r>   41.4800    0.0000 </r>
       <r>   41.6084    0.0000 </r>
       <r>   43.1769    0.0000 </r>
       <r>   47.8437    0.0000 </r>
       <r>   53.0239    0.0000 </r>
       <r>   53.1476    0.0000 </r>
       <r>   57.2223    0.0000 </r>
       <r>   57.4501    0.0000 </r>
       <r>   61.9971    0.0000 </r>
       <r>   67.1514    0.0000 </r>
       <r>   69.2410    0.0000 </r>
       <r>   69.5447    0.0000 </r>
       <r>   73.5752    0.0000 </r>
      </set>
      <set comment="kpoint 8">
       <r>    0.5630    1.0000 </r>
       <r>    7.8601    0.7298 </r>
       <r>   12.1972    0.0000 </r>
       <r>   12.1972    0.0000 </r>
       <r>   13.6082    0.0000 </r>
       <r>   15.8180    0.0000 </r>
       <r>   32.5499    0.0000 </r>
       <r>   33.7341    0.0000 </r>
       <r>   33.7341    0.0000 </r>
       <r>   40.8391    0.0000 </r>
       <r>   42.4409    0.0000 </r>
       <r>   42.4410    0.0000 </r>
       <r>   43.3220    0.0000 </r>
       <r>   44.2121    0.0000 </r>
       <r>   45.3325    0.0000 </r>
       <r>   46.3247    0.0000 </r>
       <r>   46.3248    0.0000 </r>
       <r>   54.0778    0.0000 </r>
       <r>   58.9474    0.0000 </r>
       <r>   58.9475    0.0000 </r>
       <r>   59.3559    0.0000 </r>
       <r>   60.3843    0.0000 </r>
       <r>   68.5691    0.0000 </r>
       <r>   68.9456    0.0000 </r>
      </set>
      <set comment="kpoint 9">
       <r>    4.2507    1.0000 </r>
       <r>    4.8802    1.0000 </r>
       <r>    6.5688    1.0000 </r>
       <r>   12.5241    0.0000 </r>
       <r>   15.0544    0.0000 </r>
       <r>   20.8807    0.0000 </r>
       <r>   30.4388    0.0000 </r>
       <r>   31.9323    0.0000 </r>
       <r>   32.0485    0.0000 </r>
       <r>   37.8327    0.0000 </r>
       <r>   43.5452    0.0000 </r>
       <r>   43.7732    0.0000 </r>
       <r>   45.1948    0.0000 </r>
       <r>   45.7476    0.0000 </r>
       <r>   48.4416    0.0000 </r>
       <r>   50.5249    0.0000 </r>
       <r>   52.5056    0.0000 </r>
       <r>   53.9246    0.0000 </r>
       <r>   54.6442    0.0000 </r>
       <r>   56.6641    0.0000 </r>
       <r>   59.9301    0.0000 </r>
       <r>   60.3288    0.0000 </r>
       <r>   63.8303    0.0000 </r>
       <r>   66.5351    0.0000 </r>
      </set>
      <set comment="kpoint 10">
       <r>    2.0246    1.0000 </r>
       <r>    7.1166    1.0000 </r>
       <r>    7.8099    0.9071 </r>
       <r>    9.5359    0.0000 </r>
       <r>   21.4632    0.0000 </r>
       <r>   21.7182    0.0000 </r>
       <r>   24.1754    0.0000 </r>
       <r>   29.8267    0.0000 </r>
       <r>   33.2371    0.0000 </r>
       <r>   38.0205    0.0000 </r>
       <r>   40.5878    0.0000 </r>
       <r>   41.2860    0.0000 </r>
       <r>   44.7977    0.0000 </r>
       <r>   46.0351    0.0000 </r>
       <r>   49.9107    0.0000 </r>
       <r>   52.9584    0.0000 </r>
       <r>   53.1600    0.0000 </r>
       <r>   54.2367    0.0000 </r>
       <r>   56.5741    0.0000 </r>
       <r>   59.2438    0.0000 </r>
       <r>   61.2510    0.0000 </r>
       <r>   65.7528    0.0000 </r>
       <r>   67.3843    0.0000 </r>
       <r>   67.4104    0.0000 </r>
      </set>
     </set>
    </set>
   </array>
  </eigenvalues>
  <separator name="orbital magnetization" >
   <v name="MAGDIPOLOUT">      0.00000000      0.00000000      0.00000000</v>
  </separator>
  <dos>
   <i name="efermi">      7.90341495 </i>
   <total>
    <array>
     <dimension dim="1">gridpoints</dimension>
     <dimension dim="2">spin</dimension>
     <field>energy</field>
     <field>total</field>
     <field>integrated</field>
     <set>
      <set comment="spin 1">
       <r>    -9.5581     0.0000     0.0000 </r>
       <r>    -9.2570     0.0000     0.0000 </r>
       <r>    -8.9558     0.0000     0.0000 </r>
       <r>    -8.6546     0.0000     0.0000 </r>
       <r>    -8.3535     0.0000     0.0000 </r>
       <r>    -8.0523     0.0000     0.0000 </r>
       <r>    -7.7512     0.0000     0.0000 </r>
       <r>    -7.4500     0.0000     0.0000 </r>
       <r>    -7.1488     0.0000     0.0000 </r>
       <r>    -6.8477     0.0000     0.0000 </r>
       <r>    -6.5465     0.0000     0.0000 </r>
       <r>    -6.2454     0.0000     0.0000 </r>
       <r>    -5.9442     0.0000     0.0000 </r>
       <r>    -5.6430     0.0002     0.0001 </r>
       <r>    -5.3419     0.0497     0.0150 </r>
       <r>    -5.0407     0.0032     0.0160 </r>
       <r>    -4.7396     0.0000     0.0160 </r>
       <r>    -4.4384     0.0147     0.0204 </r>
       <r>    -4.1373     0.4077     0.1432 </r>
       <r>    -3.8361     0.2922     0.2312 </r>
       <r>    -3.5349     0.0292     0.2400 </r>
       <r>    -3.2338     0.0000     0.2400 </r>
       <r>    -2.9326     0.0000     0.2400 </r>
       <r>    -2.6315     0.0010     0.2403 </r>
       <r>    -2.3303     0.5747     0.4134 </r>
       <r>    -2.0291     0.0619     0.4320 </r>
       <r>    -1.7280     0.0000     0.4320 </r>
       <r>    -1.4268     0.0436     0.4451 </r>
       <r>    -1.1257     1.2234     0.8136 </r>
       <r>    -0.8245     0.4069     0.9361 </r>
       <r>    -0.5233     0.0262     0.9440 </r>
       <r>    -0.2222     0.0000     0.9440 </r>
       <r>     0.0790     0.0000     0.9440 </r>
       <r>     0.3801     0.0015     0.9445 </r>
       <r>     0.6813     0.3022     1.0355 </r>
       <r>     0.9824     0.0151     1.0400 </r>
       <r>     1.2836     0.0000     1.0400 </r>
       <r>     1.5848     0.3921     1.1581 </r>
       <r>     1.8859     0.9147     1.4335 </r>
       <r>     2.1871     1.2297     1.8039 </r>
       <r>     2.4882     0.0138     1.8080 </r>
       <r>     2.7894     0.0000     1.8080 </r>
       <r>     3.0906     0.0000     1.8080 </r>
       <r>     3.3917     0.0034     1.8090 </r>
       <r>     3.6929     1.1822     2.1651 </r>
       <r>     3.9940     0.0896     2.1920 </r>
       <r>     4.2952     0.4688     2.3332 </r>
       <r>     4.5964     0.2671     2.4137 </r>
       <r>     4.8975     0.7070     2.6266 </r>
       <r>     5.1987     0.2571     2.7040 </r>
       <r>     5.4998     0.0000     2.7040 </r>
       <r>     5.8010     0.0000     2.7040 </r>
       <r>     6.1021     0.0000     2.7040 </r>
       <r>     6.4033     0.0061     2.7058 </r>
       <r>     6.7045     0.6139     2.8907 </r>
       <r>     7.0056     0.0918     2.9184 </r>
       <r>     7.3068     1.1963     3.2786 </r>
       <r>     7.6079     0.0078     3.2810 </r>
       <r>     7.9091     2.4409     4.0161 </r>
       <r>     8.2103     0.4248     4.1440 </r>
       <r>     8.5114     0.0000     4.1440 </r>
       <r>     8.8126     0.0000     4.1440 </r>
       <r>     9.1137     0.0000     4.1440 </r>
       <r>     9.4149     0.0554     4.1607 </r>
       <r>     9.7161     1.2129     4.5260 </r>
       <r>    10.0172     0.5020     4.6771 </r>
       <r>    10.3184     0.1423     4.7200 </r>
       <r>    10.6195     0.2064     4.7822 </r>
       <r>    10.9207     1.7038     5.2953 </r>
       <r>    11.2218     0.0024     5.2960 </r>
       <r>    11.5230     0.0000     5.2960 </r>
       <r>    11.8242     0.0004     5.2961 </r>
       <r>    12.1253     0.4681     5.4371 </r>
       <r>    12.4265     0.6471     5.6320 </r>
       <r>    12.7276     0.5833     5.8076 </r>
       <r>    13.0288     0.6855     6.0141 </r>
       <r>    13.3300     0.5908     6.1920 </r>
       <r>    13.6311     0.2012     6.2526 </r>
       <r>    13.9323     1.2388     6.6257 </r>
       <r>    14.2334     0.1538     6.6720 </r>
       <r>    14.5346     0.0001     6.6720 </r>
       <r>    14.8358     1.1494     7.0182 </r>
       <r>    15.1369     1.3231     7.4167 </r>
       <r>    15.4381     0.0775     7.4400 </r>
       <r>    15.7392     0.0422     7.4527 </r>
       <r>    16.0404     0.2763     7.5359 </r>
       <r>    16.3415     0.1168     7.5711 </r>
       <r>    16.6427     1.5208     8.0291 </r>
       <r>    16.9439     0.3637     8.1386 </r>
       <r>    17.2450     0.7606     8.3677 </r>
       <r>    17.5462     0.7812     8.6030 </r>
       <r>    17.8473     1.9739     9.1974 </r>
       <r>    18.1485     0.0085     9.2000 </r>
       <r>    18.4497     0.0000     9.2000 </r>
       <r>    18.7508     0.0000     9.2000 </r>
       <r>    19.0520     0.0000     9.2000 </r>
       <r>    19.3531     0.0061     9.2018 </r>
       <r>    19.6543     0.4575     9.3396 </r>
       <r>    19.9555     0.0295     9.3485 </r>
       <r>    20.2566     0.8218     9.5960 </r>
       <r>    20.5578     0.0538     9.6122 </r>
       <r>    20.8589     0.9947     9.9117 </r>
       <r>    21.1601     0.3994    10.0320 </r>
       <r>    21.4612     0.6235    10.2198 </r>
       <r>    21.7624     2.0751    10.8447 </r>
       <r>    22.0636     1.3063    11.2381 </r>
       <r>    22.3647     0.6703    11.4400 </r>
       <r>    22.6659     0.2775    11.5236 </r>
       <r>    22.9670     0.5726    11.6960 </r>
       <r>    23.2682     0.0001    11.6960 </r>
       <r>    23.5694     0.4277    11.8248 </r>
       <r>    23.8705     2.0959    12.4560 </r>
       <r>    24.1717     0.6372    12.6479 </r>
       <r>    24.4728     0.7839    12.8840 </r>
       <r>    24.7740     0.5178    13.0399 </r>
       <r>    25.0752     0.2503    13.1153 </r>
       <r>    25.3763     0.1750    13.1680 </r>
       <r>    25.6775     0.0490    13.1828 </r>
       <r>    25.9786     3.2971    14.1757 </r>
       <r>    26.2798     0.1072    14.2080 </r>
       <r>    26.5809     0.0000    14.2080 </r>
       <r>    26.8821     0.0000    14.2080 </r>
       <r>    27.1833     0.2632    14.2873 </r>
       <r>    27.4844     0.3978    14.4071 </r>
       <r>    27.7856     0.3517    14.5130 </r>
       <r>    28.0867     1.3331    14.9145 </r>
       <r>    28.3879     0.6391    15.1070 </r>
       <r>    28.6891     0.0965    15.1360 </r>
       <r>    28.9902     0.2461    15.2101 </r>
       <r>    29.2914     0.0759    15.2330 </r>
       <r>    29.5925     1.1804    15.5885 </r>
       <r>    29.8937     1.1477    15.9341 </r>
       <r>    30.1949     0.2291    16.0031 </r>
       <r>    30.4960     1.7282    16.5236 </r>
       <r>    30.7972     0.2249    16.5913 </r>
       <r>    31.0983     0.0652    16.6110 </r>
       <r>    31.3995     0.9394    16.8939 </r>
       <r>    31.7006     1.2052    17.2568 </r>
       <r>    32.0018     2.2647    17.9389 </r>
       <r>    32.3030     0.6280    18.1280 </r>
       <r>    32.6041     0.2482    18.2027 </r>
       <r>    32.9053     0.0715    18.2243 </r>
       <r>    33.2064     1.4551    18.6625 </r>
       <r>    33.5076     1.4141    19.0884 </r>
       <r>    33.8088     1.2439    19.4630 </r>
       <r>    34.1099     0.2094    19.5260 </r>
       <r>    34.4111     0.2977    19.6157 </r>
       <r>    34.7122     0.0010    19.6160 </r>
       <r>    35.0134     0.0002    19.6161 </r>
       <r>    35.3145     0.5167    19.7717 </r>
       <r>    35.6157     0.1206    19.8080 </r>
       <r>    35.9169     0.0138    19.8121 </r>
       <r>    36.2180     0.6157    19.9976 </r>
       <r>    36.5192     0.0080    20.0000 </r>
       <r>    36.8203     0.0000    20.0000 </r>
       <r>    37.1215     0.0097    20.0029 </r>
       <r>    37.4227     0.4237    20.1305 </r>
       <r>    37.7238     1.2737    20.5141 </r>
       <r>    38.0250     1.4169    20.9408 </r>
       <r>    38.3261     0.9167    21.2169 </r>
       <r>    38.6273     0.3069    21.3093 </r>
       <r>    38.9285     0.0089    21.3120 </r>
       <r>    39.2296     0.0000    21.3120 </r>
       <r>    39.5308     0.5355    21.4733 </r>
       <r>    39.8319     1.4728    21.9168 </r>
       <r>    40.1331     0.1168    21.9520 </r>
       <r>    40.4342     0.0191    21.9577 </r>
       <r>    40.7354     1.2573    22.3364 </r>
       <r>    41.0366     0.3697    22.4477 </r>
       <r>    41.3377     0.9937    22.7470 </r>
       <r>    41.6389     1.3372    23.1497 </r>
       <r>    41.9400     0.2432    23.2229 </r>
       <r>    42.2412     1.9530    23.8111 </r>
       <r>    42.5424     0.7384    24.0334 </r>
       <r>    42.8435     0.0483    24.0480 </r>
       <r>    43.1447     0.2088    24.1109 </r>
       <r>    43.4458     1.5367    24.5737 </r>
       <r>    43.7470     1.3486    24.9798 </r>
       <r>    44.0482     1.0063    25.2829 </r>
       <r>    44.3493     3.5351    26.3475 </r>
       <r>    44.6505     0.0388    26.3592 </r>
       <r>    44.9516     1.2327    26.7304 </r>
       <r>    45.2528     0.6283    26.9196 </r>
       <r>    45.5539     1.6174    27.4067 </r>
       <r>    45.8551     0.6126    27.5912 </r>
       <r>    46.1563     1.6692    28.0939 </r>
       <r>    46.4574     0.6783    28.2982 </r>
       <r>    46.7586     0.0193    28.3040 </r>
       <r>    47.0597     0.0000    28.3040 </r>
       <r>    47.3609     0.2238    28.3714 </r>
       <r>    47.6621     1.0888    28.6993 </r>
       <r>    47.9632     2.1136    29.3358 </r>
       <r>    48.2644     0.1904    29.3932 </r>
       <r>    48.5655     0.6082    29.5763 </r>
       <r>    48.8667     0.0254    29.5840 </r>
       <r>    49.1679     0.0000    29.5840 </r>
       <r>    49.4690     0.0000    29.5840 </r>
       <r>    49.7702     0.0922    29.6118 </r>
       <r>    50.0713     1.8788    30.1776 </r>
       <r>    50.3725     0.2972    30.2671 </r>
       <r>    50.6736     1.2269    30.6366 </r>
       <r>    50.9748     0.0114    30.6400 </r>
       <r>    51.2760     0.0000    30.6400 </r>
       <r>    51.5771     0.0000    30.6400 </r>
       <r>    51.8783     0.0000    30.6400 </r>
       <r>    52.1794     0.7790    30.8746 </r>
       <r>    52.4806     0.7269    31.0935 </r>
       <r>    52.7818     0.4148    31.2185 </r>
       <r>    53.0829     2.0795    31.8447 </r>
       <r>    53.3841     3.4127    32.8725 </r>
       <r>    53.6852     0.8784    33.1370 </r>
       <r>    53.9864     1.0862    33.4641 </r>
       <r>    54.2876     2.6437    34.2603 </r>
       <r>    54.5887     0.4426    34.3936 </r>
       <r>    54.8899     0.4994    34.5440 </r>
       <r>    55.1910     0.0002    34.5440 </r>
       <r>    55.4922     0.0000    34.5440 </r>
       <r>    55.7933     0.1763    34.5971 </r>
       <r>    56.0945     1.0978    34.9277 </r>
       <r>    56.3957     0.0084    34.9302 </r>
       <r>    56.6968     1.6500    35.4272 </r>
       <r>    56.9980     2.3380    36.1313 </r>
       <r>    57.2991     2.5952    36.9128 </r>
       <r>    57.6003     0.8366    37.1648 </r>
       <r>    57.9015     0.0107    37.1680 </r>
       <r>    58.2026     0.1211    37.2045 </r>
       <r>    58.5038     0.3039    37.2960 </r>
       <r>    58.8049     0.0140    37.3002 </r>
       <r>    59.1061     0.6858    37.5067 </r>
       <r>    59.4073     2.7075    38.3221 </r>
       <r>    59.7084     0.0997    38.3522 </r>
       <r>    60.0096     0.5538    38.5189 </r>
       <r>    60.3107     0.3852    38.6350 </r>
       <r>    60.6119     0.6786    38.8393 </r>
       <r>    60.9130     1.2325    39.2105 </r>
       <r>    61.2142     0.4292    39.3398 </r>
       <r>    61.5154     2.1464    39.9862 </r>
       <r>    61.8165     1.5605    40.4562 </r>
       <r>    62.1177     0.6359    40.6477 </r>
       <r>    62.4188     0.3982    40.7676 </r>
       <r>    62.7200     0.0546    40.7840 </r>
       <r>    63.0212     0.5391    40.9464 </r>
       <r>    63.3223     1.5848    41.4236 </r>
       <r>    63.6235     0.0023    41.4243 </r>
       <r>    63.9246     1.2188    41.7914 </r>
       <r>    64.2258     0.8480    42.0468 </r>
       <r>    64.5270     0.0041    42.0480 </r>
       <r>    64.8281     0.0000    42.0480 </r>
       <r>    65.1293     0.0227    42.0548 </r>
       <r>    65.4304     0.2953    42.1437 </r>
       <r>    65.7316     0.4878    42.2907 </r>
       <r>    66.0327     1.1663    42.6419 </r>
       <r>    66.3339     2.1714    43.2958 </r>
       <r>    66.6351     0.6767    43.4996 </r>
       <r>    66.9362     0.8110    43.7439 </r>
       <r>    67.2374     0.7414    43.9672 </r>
       <r>    67.5385     3.8468    45.1257 </r>
       <r>    67.8397     0.1405    45.1680 </r>
       <r>    68.1409     0.0006    45.1682 </r>
       <r>    68.4420     1.3832    45.5848 </r>
       <r>    68.7432     0.6335    45.7755 </r>
       <r>    69.0443     0.2963    45.8648 </r>
       <r>    69.3455     1.2720    46.2478 </r>
       <r>    69.6467     0.8296    46.4977 </r>
       <r>    69.9478     0.0476    46.5120 </r>
       <r>    70.2490     0.0000    46.5120 </r>
       <r>    70.5501     0.3293    46.6112 </r>
       <r>    70.8513     0.4141    46.7359 </r>
       <r>    71.1524     0.0004    46.7360 </r>
       <r>    71.4536     0.6976    46.9461 </r>
       <r>    71.7548     0.6576    47.1441 </r>
       <r>    72.0559     0.5568    47.3118 </r>
       <r>    72.3571     0.0147    47.3163 </r>
       <r>    72.6582     0.4103    47.4398 </r>
       <r>    72.9594     0.7973    47.6800 </r>
       <r>    73.2606     0.0533    47.6960 </r>
       <r>    73.5617     0.2835    47.7814 </r>
       <r>    73.8629     0.4071    47.9040 </r>
       <r>    74.1640     0.0000    47.9040 </r>
       <r>    74.4652     0.0000    47.9040 </r>
       <r>    74.7664     0.0000    47.9040 </r>
       <r>    75.0675     0.0000    47.9040 </r>
       <r>    75.3687     0.0000    47.9040 </r>
       <r>    75.6698     0.0000    47.9040 </r>
       <r>    75.9710     0.0000    47.9040 </r>
       <r>    76.2721     0.0000    47.9040 </r>
       <r>    76.5733     0.0194    47.9098 </r>
       <r>    76.8745     0.2983    47.9997 </r>
       <r>    77.1756     0.0011    48.0000 </r>
       <r>    77.4768     0.0000    48.0000 </r>
       <r>    77.7779     0.0000    48.0000 </r>
       <r>    78.0791     0.0000    48.0000 </r>
       <r>    78.3803     0.0000    48.0000 </r>
       <r>    78.6814     0.0000    48.0000 </r>
       <r>    78.9826     0.0000    48.0000 </r>
       <r>    79.2837     0.0000    48.0000 </r>
       <r>    79.5849     0.0000    48.0000 </r>
       <r>    79.8860     0.0000    48.0000 </r>
       <r>    80.1872     0.0000    48.0000 </r>
       <r>    80.4884     0.0000    48.0000 </r>
       <r>    80.7895     0.0000    48.0000 </r>
      </set>
     </set>
    </array>
   </total>
  </dos>
 </calculation>
 <structure name="finalpos" >
  <crystal>
   <varray name="basis" >
    <v>       1.95000000       1.95000000       0.00000000 </v>
    <v>       0.00000000       1.95000000       1.95000000 </v>
    <v>       1.95000000       0.00000000       1.95000000 </v>
   </varray>
   <i name="volume">     14.82975000 </i>
   <varray name="rec_basis" >
    <v>       0.25641026       0.25641026      -0.25641026 </v>
    <v>      -0.25641026       0.25641026       0.25641026 </v>
    <v>       0.25641026      -0.25641026       0.25641026 </v>
   </varray>
  </crystal>
  <varray name="positions" >
   <v>       0.00000000       0.00000000       0.00000000 </v>
  </varray>
 </structure>
</modeling>
