ITEM: TIMESTEP
60
ITEM: NUMBER OF ATOMS
101
ITEM: BOX BOUNDS xy xz yz pp pp pp
-2.5087731568532379e-01 2.4742556201637154e+01 3.1858779527327193e-02
-1.9912872452207075e-01 2.4711044698882301e+01 -5.1584195075493292e-02
-9.8252636271176641e-02 1.2182513668271181e+01 2.0731030960224744e-02
ITEM: ATOMS id type x y z fx fy fz
4 2 8.82271 11.9265 0.510165 0.672909 -0.0384503 0.378257
8 2 11.5445 8.83772 0.550317 0.315584 0.488496 -0.142432
9 2 10.8495 9.08304 1.79834 0.339665 0.0397233 -2.03651
10 2 9.71668 9.95792 1.76876 -0.281338 0.121836 -1.19773
11 2 9.26603 10.5466 0.52031 0.693751 0.223831 0.0904962
24 2 8.87638 11.9137 2.97782 0.0135371 0.461168 -0.261006
28 2 11.5459 8.8528 2.98726 0.473397 0.0467483 0.833207
31 2 9.29659 10.5492 2.96921 -0.0959194 0.279177 0.35738
12 2 15.2706 10.4868 0.545959 -0.202215 0.206762 0.772795
13 2 14.8665 9.90774 1.82335 -0.43243 -0.26732 -2.40921
14 2 13.6998 9.08118 1.8088 -0.701408 -0.432969 -1.13184
15 2 12.9986 8.85262 0.546825 -0.405584 -0.0599872 0.825664
19 2 15.6906 11.8614 0.566954 -0.134117 0.261428 0.0761293
32 2 15.283 10.4906 3.01265 -0.107703 -0.0971982 1.26763
35 2 12.989 8.81963 3.0093 0.0700048 0.343445 -0.0700432
39 2 15.6748 11.8605 3.03282 0.0566465 0.399772 0.284999
2 2 10.8765 15.4824 0.518895 -0.533306 -0.42024 -0.127156
3 2 11.5529 15.6715 1.77487 -0.289826 0.0946589 -0.739457
5 2 8.89572 12.6481 1.76281 -0.419936 0.098125 -1.05453
6 2 9.30157 14.0278 1.76339 -0.321231 -0.208734 -1.70959
7 2 9.70057 14.6425 0.497728 0.154208 -0.724554 0.458083
22 2 10.8505 15.43 2.98246 0.294619 0.414897 0.289943
27 2 9.67623 14.6239 2.97843 0.206858 -0.111858 0.115705
16 2 14.8266 14.5555 0.526577 -0.250647 -0.0740455 1.62013
17 2 15.2225 13.9379 1.80744 -0.377138 0.897554 -1.16736
18 2 15.6745 12.5976 1.83424 -0.0294908 -0.682419 -1.89714
20 2 12.9781 15.6759 1.79653 0.150213 -0.349054 -1.74759
21 2 13.679 15.4348 0.549854 -0.218188 -0.102353 -0.608004
36 2 14.7843 14.543 3.01513 0.184112 -0.103772 -0.0696644
41 2 13.643 15.4121 2.99453 0.85989 -0.312682 0.613001
1 1 7.30638 10.7435 6.56249 -0.0464735 -0.127242 0.0318348
29 2 10.8613 9.12207 4.20315 0.572105 -0.54637 0.0427356
30 2 9.7189 9.9482 4.18192 -0.180888 0.474395 0.239425
44 2 8.87427 11.94 5.39413 0.0340177 -0.567518 0.487407
48 2 11.547 8.89203 5.42876 -0.303168 -0.283974 0.122351
49 2 10.8493 9.09195 6.65418 -0.107949 0.287154 -0.263107
50 2 9.72116 9.96565 6.65593 0.0159646 0.0686507 -1.1664
51 2 9.31342 10.562 5.38994 -0.0915663 0.00413331 1.17992
64 2 8.85819 11.8979 7.87354 -0.120437 0.807491 -0.00135853
68 2 11.5207 8.88429 7.88063 -0.210881 -0.280639 0.396891
71 2 9.31407 10.5496 7.88082 -0.179461 -0.235968 0.115078
33 2 14.8432 9.88257 4.23256 -0.0832787 0.3987 0.250205
34 2 13.678 9.04333 4.24043 -0.0433878 -0.0176459 -0.727136
52 2 15.2295 10.497 5.46356 -0.286753 -0.576587 0.0463282
53 2 14.7936 9.90262 6.69149 0.183095 0.41855 -0.608051
54 2 13.6399 9.0699 6.68175 -0.313577 -0.18381 -0.30905
55 2 12.966 8.82049 5.43926 0.438238 0.442283 0.818612
59 2 15.6343 11.8522 5.47361 0.14827 1.09541 0.0495636
72 2 15.2045 10.516 7.89621 -0.134626 -0.437139 0.35271
75 2 12.9285 8.88149 7.8958 0.759285 -0.0309246 0.013731
79 2 15.6234 11.8706 7.90549 -0.0353589 0.339585 0.31953
23 2 11.552 15.6361 4.20992 -0.353051 0.0173794 -0.384501
25 2 8.85544 12.6758 4.18302 -0.265204 -1.21213 -0.107668
26 2 9.23406 14.0246 4.1918 0.944479 0.969534 -0.097983
42 2 10.8693 15.4132 5.42298 0.0803693 0.166354 0.767931
43 2 11.5606 15.6433 6.66831 -0.866213 -0.0901097 -0.958228
45 2 8.85741 12.6279 6.6442 0.00722175 0.694189 -0.11485
46 2 9.24062 14.0172 6.65196 0.568778 0.0910989 -0.968313
47 2 9.70987 14.5945 5.4077 -0.757126 -0.422522 0.957445
62 2 10.8503 15.4066 7.86816 0.268575 0.674167 -0.0399755
67 2 9.67587 14.6148 7.85623 -0.233412 -0.670334 0.530316
37 2 15.2078 13.9527 4.24705 -0.254601 0.18666 -0.333956
38 2 15.6314 12.5998 4.24731 0.202605 -0.871367 0.355698
40 2 12.9676 15.6208 4.21358 0.158929 0.173642 0.396639
56 2 14.7908 14.5463 5.46837 -0.0386096 -0.0144714 -0.262677
57 2 15.1946 13.9696 6.69464 0.291971 -0.537682 -0.146466
58 2 15.6469 12.5948 6.70412 -0.392031 0.169398 -0.905287
60 2 12.9791 15.6832 6.66705 0.0912094 -0.574733 -0.237747
61 2 13.6597 15.4043 5.44063 -0.336466 0.328811 0.29861
76 2 14.7685 14.5733 7.89899 0.387619 -0.701167 0.687353
81 2 13.6384 15.4235 7.89669 -0.216456 0.580845 0.0669895
69 2 10.8345 9.08458 9.11825 0.0796742 -0.156816 -0.38008
70 2 9.71558 9.95094 9.11181 -0.488305 0.725652 -0.00315423
84 2 8.82537 11.9435 10.3115 -0.0520374 0.190814 0.471069
88 2 11.5065 8.8207 10.3266 0.226223 0.539492 1.37082
89 2 10.8256 9.11294 11.5778 0.0912824 -0.116532 0.0210398
90 2 9.69432 10.0075 11.5739 -0.0910302 -0.147278 -0.627152
91 2 9.28891 10.5996 10.3047 0.29051 -0.78653 1.43719
73 2 14.7801 9.92254 9.1179 0.253965 0.23992 0.105397
74 2 13.6189 9.12212 9.12156 -0.275283 -0.830531 0.0152158
92 2 15.2206 10.4913 10.3364 -0.312779 0.516687 1.05366
93 2 14.7751 9.93315 11.596 0.247164 -0.0957207 -0.426371
94 2 13.6202 9.07726 11.5933 0.22453 0.134775 -0.385583
95 2 12.9528 8.82826 10.3387 -0.413362 0.361265 0.74596
99 2 15.6166 11.8735 10.3265 -0.012172 0.106284 2.34147
63 2 11.5205 15.674 9.08995 -0.019762 -0.14492 0.349192
65 2 8.8169 12.6564 9.08279 0.117732 -0.0844583 0.238619
66 2 9.2439 14.0192 9.08746 0.0808646 -0.00343863 -0.781399
82 2 10.8302 15.4422 10.3004 0.0518753 0.3508 1.02986
83 2 11.4955 15.7071 11.5575 0.955582 -0.104724 -0.300127
85 2 8.7838 12.6781 11.5555 0.358958 -0.114001 -0.098427
86 2 9.2407 14.0486 11.5359 -0.0109106 -0.142186 0.688293
87 2 9.67838 14.602 10.2885 -0.0276694 0.156704 1.23174
77 2 15.1785 13.9577 9.1369 -0.287922 0.673184 -0.840513
78 2 15.5822 12.6043 9.1282 0.418399 -0.26138 -0.17085
80 2 12.941 15.6911 9.11759 0.744386 -0.448285 -0.536143
96 2 14.7747 14.5806 10.3354 0.422442 -0.518872 1.1099
97 2 15.2074 14 11.5919 -0.193438 -0.77535 -0.498956
98 2 15.6274 12.6006 11.6127 -0.149204 0.245807 -1.17713
100 2 12.9552 15.698 11.5678 -0.223048 -0.301721 0.373866
101 2 13.6528 15.4488 10.3243 -0.993339 0.393277 1.1339
