ATOMS
   1          0.70461703          0.00000000          0.77085745
   1          0.70461706          0.00000000          4.22914262
   8          0.11774261          0.00000000          0.00000002
BEGIN_BLOCK_DATAGRID_3D
 DATA_from:siesta.BADER
 BEGIN_DATAGRID_3D_BADER:spin_1
    30    30    30
  0.0000000E+00  0.0000000E+00  0.0000000E+00
  5.0000000E+00  0.0000000E+00  0.0000000E+00
  0.0000000E+00  5.0000000E+00  0.0000000E+00
  0.0000000E+00  0.0000000E+00  5.0000000E+00
  1.75725E+00  1.48713E+00  1.66004E+00  1.07015E+00  3.90485E-01  1.53896E-01
  7.60414E-02  3.81636E-02  1.96060E-02  1.04450E-02  5.31732E-03  2.48190E-03
  8.89838E-04  2.52623E-04  9.85121E-05  4.12606E-05  1.71126E-05  4.63473E-06
  9.14675E-06  1.21391E-04  6.82312E-04  2.44379E-03  6.75003E-03  1.68750E-02
  4.06111E-02  9.98093E-02  2.70181E-01  8.45654E-01  1.73633E+00  1.75725E+00
  1.94077E+00  1.84188E+00  1.62181E+00  9.09684E-01  3.33046E-01  1.39788E-01
  7.01061E-02  3.55703E-02  1.85567E-02  9.94314E-03  5.06662E-03  2.34982E-03
  8.35256E-04  2.40085E-04  9.51022E-05  4.01964E-05  1.65089E-05  4.37214E-06
  7.81348E-06  1.10958E-04  6.34245E-04  2.30489E-03  6.34304E-03  1.57935E-02
  3.76650E-02  9.11466E-02  2.35175E-01  6.93935E-01  1.54013E+00  1.94077E+00
  1.43395E+00  1.47571E+00  1.06219E+00  5.44020E-01  2.21971E-01  1.07326E-01
  5.58576E-02  2.92212E-02  1.58881E-02  8.62524E-03  4.40521E-03  2.00276E-03
  6.92668E-04  2.10467E-04  8.59973E-05  3.72342E-05  1.47967E-05  3.64948E-06
  4.21566E-06  8.63808E-05  5.08667E-04  1.93924E-03  5.30257E-03  1.30718E-02
  3.04345E-02  7.07096E-02  1.64290E-01  3.93975E-01  9.20458E-01  1.43395E+00
  5.70501E-01  6.01145E-01  4.41337E-01  2.33580E-01  1.28954E-01  7.19240E-02
  3.98752E-02  2.20797E-02  1.22614E-02  6.80190E-03  3.50669E-03  1.55272E-03
  5.20609E-04  1.71555E-04  7.28950E-05  3.25295E-05  1.22593E-05  2.45776E-06
  9.83307E-07  5.59185E-05  3.42145E-04  1.40698E-03  4.06374E-03  9.78191E-03
  2.17871E-02  4.70082E-02  9.65539E-02  1.99379E-01  3.75811E-01  5.70501E-01
  1.90532E-01  1.97167E-01  1.62523E-01  1.12153E-01  7.17381E-02  4.33022E-02
  2.55996E-02  1.50763E-02  8.83746E-03  4.93711E-03  2.54322E-03  1.05935E-03
  3.40649E-04  1.32743E-04  5.89701E-05  2.62822E-05  8.96648E-06  1.29861E-06
  0.00000E+00  2.56463E-05  2.05491E-04  9.02015E-04  2.71106E-03  6.50098E-03
  1.39977E-02  2.84528E-02  5.39490E-02  9.51923E-02  1.46160E-01  1.90532E-01
  7.83532E-02  8.06863E-02  7.06226E-02  5.40964E-02  3.74793E-02  2.43721E-02
  1.54398E-02  9.71214E-03  5.86840E-03  3.28746E-03  1.60986E-03  6.27120E-04
  2.06772E-04  9.74816E-05  4.55762E-05  1.91248E-05  5.46706E-06  4.09745E-07
  0.00000E+00  4.89156E-06  9.70221E-05  4.79523E-04  1.58149E-03  3.88502E-03
  8.20516E-03  1.58700E-02  2.81080E-02  4.49814E-02  6.39259E-02  7.83532E-02
  3.43366E-02  3.54449E-02  3.20063E-02  2.60599E-02  1.92597E-02  1.34087E-02
  9.08299E-03  5.88090E-03  3.60620E-03  1.98490E-03  8.96245E-04  3.12866E-04
  1.37682E-04  6.88395E-05  3.22248E-05  1.19501E-05  2.39714E-06  3.45834E-08
  0.00000E+00  0.00000E+00  3.12929E-05  2.20713E-04  7.78792E-04  2.07651E-03
  4.44652E-03  8.37524E-03  1.41437E-02  2.11862E-02  2.87732E-02  3.43366E-02
  1.52479E-02  1.58282E-02  1.46747E-02  1.25676E-02  9.83832E-03  7.25557E-03
  5.04728E-03  3.28084E-03  2.01342E-03  1.02970E-03  4.16403E-04  1.66111E-04
  8.81128E-05  4.58778E-05  1.97541E-05  5.77577E-06  4.29803E-07  0.00000E+00
  0.00000E+00  0.00000E+00  3.57363E-06  7.38429E-05  3.09601E-04  9.40194E-04
  2.15781E-03  4.12589E-03  6.83632E-03  9.80769E-03  1.29641E-02  1.52479E-02
  6.80731E-03  7.16021E-03  6.86051E-03  5.97755E-03  4.86506E-03  3.68787E-03
  2.60534E-03  1.69049E-03  9.30664E-04  4.31214E-04  1.73057E-04  1.00638E-04
  5.54233E-05  2.61040E-05  9.40412E-06  1.63462E-06  4.53169E-09  0.00000E+00
  0.00000E+00  0.00000E+00  0.00000E+00  5.78240E-06  9.99591E-05  3.52599E-04
  8.81632E-04  1.77925E-03  2.99907E-03  4.48947E-03  5.83108E-03  6.80731E-03
  2.88795E-03  3.09514E-03  3.02021E-03  2.69114E-03  2.21555E-03  1.68083E-03
  1.15677E-03  6.99979E-04  3.45453E-04  1.53399E-04  9.55491E-05  5.65183E-05
  2.92550E-05  1.16944E-05  2.64659E-06  3.99661E-08  0.00000E+00  0.00000E+00
  0.00000E+00  0.00000E+00  0.00000E+00  0.00000E+00  8.10305E-06  8.43696E-05
  2.81770E-04  6.30023E-04  1.15953E-03  1.80836E-03  2.42179E-03  2.88795E-03
  1.05923E-03  1.17218E-03  1.16599E-03  1.05441E-03  8.62348E-04  6.28355E-04
  3.97338E-04  2.05639E-04  1.13935E-04  7.82883E-05  4.87099E-05  2.63943E-05
  1.13208E-05  2.95345E-06  6.63463E-08  0.00000E+00  0.00000E+00  0.00000E+00
  0.00000E+00  0.00000E+00  0.00000E+00  0.00000E+00  0.00000E+00  9.90537E-07
  4.28791E-05  1.63742E-04  3.55620E-04  5.92633E-04  8.44137E-04  1.05923E-03
  3.02727E-04  3.51105E-04  3.54451E-04  3.16475E-04  2.43810E-04  1.58227E-04
  9.38109E-05  7.29773E-05  5.35141E-05  3.46763E-05  1.92039E-05  8.24964E-06
  1.94731E-06  1.10024E-07  0.00000E+00  0.00000E+00  0.00000E+00  0.00000E+00
  0.00000E+00  0.00000E+00  0.00000E+00  0.00000E+00  0.00000E+00  0.00000E+00
  0.00000E+00  1.05682E-05  5.70795E-05  1.29225E-04  2.20849E-04  3.02727E-04
  3.55096E-05  4.87112E-05  5.25104E-05  5.10445E-05  4.60400E-05  4.28784E-05
  3.60323E-05  2.70903E-05  1.85125E-05  1.01143E-05  3.89476E-06  5.97888E-07
  6.04775E-10  0.00000E+00  0.00000E+00  0.00000E+00  0.00000E+00  0.00000E+00
  0.00000E+00  0.00000E+00  0.00000E+00  0.00000E+00  0.00000E+00  0.00000E+00
  0.00000E+00  3.31410E-09  1.03025E-06  4.45631E-06  1.77038E-05  3.55095E-05
  2.58510E-06  5.60665E-06  8.64865E-06  1.09329E-05  1.15512E-05  1.05787E-05
  8.30022E-06  5.40717E-06  2.36055E-06  5.80891E-07  3.88692E-08  0.00000E+00
  0.00000E+00  0.00000E+00  0.00000E+00  0.00000E+00  0.00000E+00  0.00000E+00
  0.00000E+00  0.00000E+00  0.00000E+00  0.00000E+00  0.00000E+00  0.00000E+00
  0.00000E+00  0.00000E+00  0.00000E+00  4.89397E-08  6.85003E-07  2.58510E-06
  0.00000E+00  2.38478E-08  1.02173E-07  2.26456E-07  2.81195E-07  2.23370E-07
  1.33517E-07  5.24790E-08  0.00000E+00  0.00000E+00  0.00000E+00  0.00000E+00
  0.00000E+00  0.00000E+00  0.00000E+00  0.00000E+00  0.00000E+00  0.00000E+00
  0.00000E+00  0.00000E+00  0.00000E+00  0.00000E+00  0.00000E+00  0.00000E+00
  0.00000E+00  0.00000E+00  0.00000E+00  0.00000E+00  0.00000E+00  0.00000E+00
  0.00000E+00  2.38475E-08  1.02172E-07  2.26453E-07  2.81192E-07  2.23368E-07
  1.33516E-07  5.24784E-08  0.00000E+00  0.00000E+00  0.00000E+00  0.00000E+00
  0.00000E+00  0.00000E+00  0.00000E+00  0.00000E+00  0.00000E+00  0.00000E+00
  0.00000E+00  0.00000E+00  0.00000E+00  0.00000E+00  0.00000E+00  0.00000E+00
  0.00000E+00  0.00000E+00  0.00000E+00  0.00000E+00  0.00000E+00  0.00000E+00
  2.58509E-06  5.60665E-06  8.64864E-06  1.09329E-05  1.15512E-05  1.05787E-05
  8.30021E-06  5.40716E-06  2.36055E-06  5.80889E-07  3.88691E-08  0.00000E+00
  0.00000E+00  0.00000E+00  0.00000E+00  0.00000E+00  0.00000E+00  0.00000E+00
  0.00000E+00  0.00000E+00  0.00000E+00  0.00000E+00  0.00000E+00  0.00000E+00
  0.00000E+00  0.00000E+00  0.00000E+00  4.89395E-08  6.85000E-07  2.58509E-06
  3.55095E-05  4.87112E-05  5.25103E-05  5.10444E-05  4.60400E-05  4.28784E-05
  3.60323E-05  2.70902E-05  1.85124E-05  1.01143E-05  3.89476E-06  5.97886E-07
  6.04754E-10  0.00000E+00  0.00000E+00  0.00000E+00  0.00000E+00  0.00000E+00
  0.00000E+00  0.00000E+00  0.00000E+00  0.00000E+00  0.00000E+00  0.00000E+00
  0.00000E+00  3.31410E-09  1.03025E-06  4.45630E-06  1.77037E-05  3.55095E-05
  3.02727E-04  3.51104E-04  3.54451E-04  3.16475E-04  2.43810E-04  1.58227E-04
  9.38109E-05  7.29773E-05  5.35140E-05  3.46762E-05  1.92039E-05  8.24964E-06
  1.94730E-06  1.10024E-07  0.00000E+00  0.00000E+00  0.00000E+00  0.00000E+00
  0.00000E+00  0.00000E+00  0.00000E+00  0.00000E+00  0.00000E+00  0.00000E+00
  0.00000E+00  1.05681E-05  5.70795E-05  1.29225E-04  2.20848E-04  3.02727E-04
  1.05923E-03  1.17218E-03  1.16599E-03  1.05441E-03  8.62347E-04  6.28355E-04
  3.97338E-04  2.05639E-04  1.13935E-04  7.82883E-05  4.87099E-05  2.63943E-05
  1.13208E-05  2.95345E-06  6.63463E-08  0.00000E+00  0.00000E+00  0.00000E+00
  0.00000E+00  0.00000E+00  0.00000E+00  0.00000E+00  0.00000E+00  9.90536E-07
  4.28790E-05  1.63741E-04  3.55620E-04  5.92632E-04  8.44137E-04  1.05923E-03
  2.88795E-03  3.09514E-03  3.02020E-03  2.69113E-03  2.21555E-03  1.68083E-03
  1.15677E-03  6.99978E-04  3.45452E-04  1.53399E-04  9.55491E-05  5.65182E-05
  2.92550E-05  1.16944E-05  2.64659E-06  3.99657E-08  0.00000E+00  0.00000E+00
  0.00000E+00  0.00000E+00  0.00000E+00  0.00000E+00  8.10301E-06  8.43695E-05
  2.81770E-04  6.30022E-04  1.15953E-03  1.80836E-03  2.42179E-03  2.88795E-03
  6.80731E-03  7.16021E-03  6.86050E-03  5.97754E-03  4.86506E-03  3.68787E-03
  2.60534E-03  1.69049E-03  9.30663E-04  4.31213E-04  1.73057E-04  1.00638E-04
  5.54232E-05  2.61040E-05  9.40411E-06  1.63462E-06  4.53168E-09  0.00000E+00
  0.00000E+00  0.00000E+00  0.00000E+00  5.78239E-06  9.99590E-05  3.52599E-04
  8.81631E-04  1.77925E-03  2.99907E-03  4.48946E-03  5.83108E-03  6.80731E-03
  1.52479E-02  1.58282E-02  1.46747E-02  1.25676E-02  9.83832E-03  7.25556E-03
  5.04727E-03  3.28084E-03  2.01342E-03  1.02970E-03  4.16403E-04  1.66111E-04
  8.81127E-05  4.58777E-05  1.97541E-05  5.77577E-06  4.29802E-07  0.00000E+00
  0.00000E+00  0.00000E+00  3.57363E-06  7.38428E-05  3.09601E-04  9.40193E-04
  2.15781E-03  4.12589E-03  6.83632E-03  9.80769E-03  1.29641E-02  1.52479E-02
  3.43366E-02  3.54449E-02  3.20063E-02  2.60599E-02  1.92597E-02  1.34087E-02
  9.08298E-03  5.88090E-03  3.60620E-03  1.98490E-03  8.96245E-04  3.12865E-04
  1.37682E-04  6.88395E-05  3.22248E-05  1.19501E-05  2.39714E-06  3.45834E-08
  0.00000E+00  0.00000E+00  3.12929E-05  2.20713E-04  7.78791E-04  2.07651E-03
  4.44652E-03  8.37523E-03  1.41436E-02  2.11862E-02  2.87732E-02  3.43366E-02
  7.83531E-02  8.06863E-02  7.06226E-02  5.40963E-02  3.74793E-02  2.43721E-02
  1.54398E-02  9.71214E-03  5.86840E-03  3.28746E-03  1.60986E-03  6.27120E-04
  2.06772E-04  9.74816E-05  4.55762E-05  1.91248E-05  5.46706E-06  4.09745E-07
  0.00000E+00  4.89155E-06  9.70221E-05  4.79523E-04  1.58149E-03  3.88501E-03
  8.20515E-03  1.58699E-02  2.81080E-02  4.49814E-02  6.39259E-02  7.83531E-02
  1.90532E-01  1.97166E-01  1.62523E-01  1.12153E-01  7.17380E-02  4.33022E-02
  2.55996E-02  1.50763E-02  8.83746E-03  4.93711E-03  2.54322E-03  1.05935E-03
  3.40649E-04  1.32743E-04  5.89701E-05  2.62822E-05  8.96648E-06  1.29861E-06
  0.00000E+00  2.56463E-05  2.05491E-04  9.02014E-04  2.71106E-03  6.50097E-03
  1.39977E-02  2.84528E-02  5.39490E-02  9.51923E-02  1.46159E-01  1.90532E-01
  5.70500E-01  6.01145E-01  4.41336E-01  2.33580E-01  1.28954E-01  7.19240E-02
  3.98752E-02  2.20797E-02  1.22614E-02  6.80190E-03  3.50669E-03  1.55272E-03
  5.20609E-04  1.71555E-04  7.28950E-05  3.25295E-05  1.22593E-05  2.45776E-06
  9.83305E-07  5.59185E-05  3.42145E-04  1.40698E-03  4.06374E-03  9.78190E-03
  2.17870E-02  4.70082E-02  9.65539E-02  1.99379E-01  3.75811E-01  5.70500E-01
  1.43395E+00  1.47571E+00  1.06219E+00  5.44020E-01  2.21970E-01  1.07326E-01
  5.58576E-02  2.92212E-02  1.58881E-02  8.62524E-03  4.40521E-03  2.00276E-03
  6.92668E-04  2.10467E-04  8.59973E-05  3.72342E-05  1.47967E-05  3.64948E-06
  4.21565E-06  8.63807E-05  5.08667E-04  1.93924E-03  5.30257E-03  1.30718E-02
  3.04345E-02  7.07096E-02  1.64290E-01  3.93975E-01  9.20457E-01  1.43395E+00
  1.94077E+00  1.84188E+00  1.62181E+00  9.09684E-01  3.33046E-01  1.39788E-01
  7.01061E-02  3.55703E-02  1.85567E-02  9.94314E-03  5.06662E-03  2.34982E-03
  8.35256E-04  2.40085E-04  9.51022E-05  4.01964E-05  1.65089E-05  4.37214E-06
  7.81348E-06  1.10958E-04  6.34245E-04  2.30489E-03  6.34304E-03  1.57935E-02
  3.76650E-02  9.11466E-02  2.35175E-01  6.93935E-01  1.54013E+00  1.94077E+00
  1.75725E+00  1.48714E+00  1.66004E+00  1.07015E+00  3.90485E-01  1.53896E-01
  7.60414E-02  3.81636E-02  1.96060E-02  1.04450E-02  5.31732E-03  2.48190E-03
  8.89838E-04  2.52623E-04  9.85121E-05  4.12606E-05  1.71126E-05  4.63473E-06
  9.14675E-06  1.21391E-04  6.82312E-04  2.44379E-03  6.75003E-03  1.68750E-02
  4.06111E-02  9.98093E-02  2.70181E-01  8.45654E-01  1.73633E+00  1.75725E+00
  1.76648E+00  1.66550E+00  1.55598E+00  9.20055E-01  3.54339E-01  1.55017E-01
  7.85227E-02  3.96209E-02  2.02447E-02  1.06862E-02  5.38169E-03  2.47884E-03
  8.82139E-04  2.53656E-04  9.98020E-05  4.12720E-05  1.67063E-05  4.55393E-06
  6.78482E-06  1.16862E-04  6.33844E-04  2.29400E-03  6.28676E-03  1.56086E-02
  3.71610E-02  8.97003E-02  2.30566E-01  6.74674E-01  1.46520E+00  1.76648E+00
  1.74221E+00  1.73408E+00  1.41754E+00  7.74595E-01  3.04651E-01  1.40379E-01
  7.20785E-02  3.67990E-02  1.91224E-02  1.01560E-02  5.12266E-03  2.34530E-03
  8.27455E-04  2.41007E-04  9.63297E-05  4.00730E-05  1.61165E-05  4.30012E-06
  5.58927E-06  1.07347E-04  5.88587E-04  2.16327E-03  5.90990E-03  1.46169E-02
  3.45031E-02  8.20953E-02  2.02516E-01  5.52562E-01  1.26214E+00  1.74221E+00
  1.16153E+00  1.21028E+00  8.65615E-01  4.63464E-01  2.07793E-01  1.06927E-01
  5.68420E-02  2.99721E-02  1.62895E-02  8.77129E-03  4.44151E-03  1.99503E-03
  6.84792E-04  2.13373E-04  8.70594E-05  3.67631E-05  1.44439E-05  3.60282E-06
  2.66673E-06  8.25133E-05  4.70480E-04  1.81902E-03  4.94574E-03  1.21179E-02
  2.79639E-02  6.40501E-02  1.44570E-01  3.19613E-01  7.31255E-01  1.16153E+00
  4.68661E-01  4.95381E-01  3.72336E-01  2.11669E-01  1.23451E-01  7.09579E-02
  4.00617E-02  2.23934E-02  1.24569E-02  6.86862E-03  3.51926E-03  1.54218E-03
  5.13266E-04  1.73659E-04  7.36864E-05  3.18668E-05  1.19755E-05  2.45760E-06
  5.89212E-07  5.07856E-05  3.19532E-04  1.31962E-03  3.80364E-03  9.11570E-03
  2.01703E-02  4.30851E-02  8.73106E-02  1.73485E-01  3.14398E-01  4.68661E-01
  1.68228E-01  1.74723E-01  1.46967E-01  1.04910E-01  6.88280E-02  4.24520E-02
  2.54862E-02  1.51627E-02  8.89828E-03  4.95337E-03  2.53115E-03  1.04796E-03
  3.37419E-04  1.34152E-04  5.92908E-05  2.57283E-05  8.76744E-06  1.36393E-06
  1.21066E-08  2.21205E-05  1.92878E-04  8.43388E-04  2.53904E-03  6.07977E-03
  1.30280E-02  2.62971E-02  4.94129E-02  8.58223E-02  1.30262E-01  1.68228E-01
  7.15885E-02  7.40850E-02  6.55338E-02  5.11205E-02  3.60338E-02  2.38148E-02
  1.52865E-02  9.69608E-03  5.86212E-03  3.27810E-03  1.59288E-03  6.17032E-04
  2.09306E-04  9.83151E-05  4.49715E-05  1.87194E-05  5.36795E-06  5.14408E-07
  0.00000E+00  3.59042E-06  9.30428E-05  4.50146E-04  1.47870E-03  3.64433E-03
  7.67439E-03  1.47791E-02  2.60292E-02  4.12611E-02  5.84241E-02  7.15885E-02
  3.18768E-02  3.30486E-02  3.00787E-02  2.48098E-02  1.85730E-02  1.30994E-02
  8.96469E-03  5.82708E-03  3.57917E-03  1.96113E-03  8.81756E-04  3.07306E-04
  1.38929E-04  6.88613E-05  3.16135E-05  1.17055E-05  2.40743E-06  1.02473E-07
  0.00000E+00  0.00000E+00  2.79682E-05  2.06823E-04  7.23535E-04  1.94754E-03
  4.17425E-03  7.84871E-03  1.32131E-02  1.96743E-02  2.66852E-02  3.18768E-02
  1.43210E-02  1.49249E-02  1.39259E-02  1.20462E-02  9.52575E-03  7.08613E-03
  4.95609E-03  3.23142E-03  1.98368E-03  1.01067E-03  4.06388E-04  1.67570E-04
  8.85912E-05  4.52430E-05  1.93769E-05  5.69440E-06  5.61814E-07  0.00000E+00
  0.00000E+00  0.00000E+00  2.78814E-06  6.93185E-05  2.88462E-04  8.77169E-04
  2.02763E-03  3.88096E-03  6.43010E-03  9.19459E-03  1.21553E-02  1.43210E-02
  6.47880E-03  6.83817E-03  6.58149E-03  5.77143E-03  4.72266E-03  3.59676E-03
  2.54972E-03  1.65481E-03  9.10147E-04  4.20094E-04  1.72965E-04  1.00862E-04
  5.48275E-05  2.56749E-05  9.27570E-06  1.72717E-06  5.89241E-08  0.00000E+00
  0.00000E+00  0.00000E+00  0.00000E+00  4.75912E-06  9.31768E-05  3.31109E-04
  8.28540E-04  1.68161E-03  2.83965E-03  4.25316E-03  5.53575E-03  6.47880E-03
  2.75444E-03  2.96225E-03  2.90116E-03  2.59727E-03  2.14637E-03  1.63346E-03
  1.12455E-03  6.79678E-04  3.34583E-04  1.52372E-04  9.54575E-05  5.57859E-05
  2.87984E-05  1.15520E-05  2.72208E-06  1.50230E-07  0.00000E+00  0.00000E+00
  0.00000E+00  0.00000E+00  0.00000E+00  0.00000E+00  7.61028E-06  7.77974E-05
  2.64603E-04  5.95225E-04  1.09599E-03  1.71289E-03  2.30190E-03  2.75444E-03
  1.00650E-03  1.11834E-03  1.11639E-03  1.01416E-03  8.30775E-04  6.05536E-04
  3.82177E-04  1.96976E-04  1.13994E-04  7.75864E-05  4.80960E-05  2.60432E-05
  1.12089E-05  3.05577E-06  2.32585E-07  0.00000E+00  0.00000E+00  0.00000E+00
  0.00000E+00  0.00000E+00  0.00000E+00  0.00000E+00  0.00000E+00  1.20183E-06
  3.89590E-05  1.52662E-04  3.35390E-04  5.61111E-04  7.99977E-04  1.00650E-03
  2.85340E-04  3.32020E-04  3.35789E-04  3.00291E-04  2.31125E-04  1.50435E-04
  9.15486E-05  7.24236E-05  5.30266E-05  3.43370E-05  1.90395E-05  8.25957E-06
  2.11283E-06  2.47061E-07  0.00000E+00  0.00000E+00  0.00000E+00  0.00000E+00
  0.00000E+00  0.00000E+00  0.00000E+00  0.00000E+00  0.00000E+00  0.00000E+00
  2.57584E-07  9.84773E-06  5.24640E-05  1.19693E-04  2.06900E-04  2.85340E-04
  3.30439E-05  4.55462E-05  4.92673E-05  4.88890E-05  4.60689E-05  4.28145E-05
  3.59309E-05  2.70054E-05  1.84948E-05  1.01905E-05  4.07801E-06  8.88036E-07
  4.83366E-08  0.00000E+00  0.00000E+00  0.00000E+00  0.00000E+00  0.00000E+00
  0.00000E+00  0.00000E+00  0.00000E+00  0.00000E+00  0.00000E+00  0.00000E+00
  0.00000E+00  1.12872E-07  1.70176E-06  5.26526E-06  1.64756E-05  3.30439E-05
  3.44188E-06  6.36721E-06  9.28494E-06  1.14449E-05  1.19733E-05  1.09393E-05
  8.63197E-06  5.74030E-06  2.73187E-06  9.07987E-07  1.35607E-07  0.00000E+00
  0.00000E+00  0.00000E+00  0.00000E+00  0.00000E+00  0.00000E+00  0.00000E+00
  0.00000E+00  0.00000E+00  0.00000E+00  0.00000E+00  0.00000E+00  0.00000E+00
  0.00000E+00  0.00000E+00  0.00000E+00  2.48140E-07  1.25692E-06  3.44188E-06
  1.67989E-08  9.51066E-08  3.34303E-07  6.40335E-07  7.39701E-07  6.14196E-07
  3.45889E-07  1.21528E-07  1.14782E-08  0.00000E+00  0.00000E+00  0.00000E+00
  0.00000E+00  0.00000E+00  0.00000E+00  0.00000E+00  0.00000E+00  0.00000E+00
  0.00000E+00  0.00000E+00  0.00000E+00  0.00000E+00  0.00000E+00  0.00000E+00
  0.00000E+00  0.00000E+00  0.00000E+00  0.00000E+00  0.00000E+00  1.67989E-08
  1.67987E-08  9.51056E-08  3.34301E-07  6.40332E-07  7.39699E-07  6.14194E-07
  3.45887E-07  1.21527E-07  1.14781E-08  0.00000E+00  0.00000E+00  0.00000E+00
  0.00000E+00  0.00000E+00  0.00000E+00  0.00000E+00  0.00000E+00  0.00000E+00
  0.00000E+00  0.00000E+00  0.00000E+00  0.00000E+00  0.00000E+00  0.00000E+00
  0.00000E+00  0.00000E+00  0.00000E+00  0.00000E+00  0.00000E+00  1.67987E-08
  3.44187E-06  6.36720E-06  9.28493E-06  1.14449E-05  1.19733E-05  1.09393E-05
  8.63196E-06  5.74030E-06  2.73186E-06  9.07985E-07  1.35607E-07  0.00000E+00
  0.00000E+00  0.00000E+00  0.00000E+00  0.00000E+00  0.00000E+00  0.00000E+00
  0.00000E+00  0.00000E+00  0.00000E+00  0.00000E+00  0.00000E+00  0.00000E+00
  0.00000E+00  0.00000E+00  0.00000E+00  2.48139E-07  1.25692E-06  3.44187E-06
  3.30439E-05  4.55461E-05  4.92672E-05  4.88889E-05  4.60689E-05  4.28145E-05
  3.59309E-05  2.70054E-05  1.84948E-05  1.01905E-05  4.07801E-06  8.88034E-07
  4.83363E-08  0.00000E+00  0.00000E+00  0.00000E+00  0.00000E+00  0.00000E+00
  0.00000E+00  0.00000E+00  0.00000E+00  0.00000E+00  0.00000E+00  0.00000E+00
  0.00000E+00  1.12872E-07  1.70176E-06  5.26525E-06  1.64755E-05  3.30439E-05
  2.85340E-04  3.32020E-04  3.35789E-04  3.00291E-04  2.31125E-04  1.50435E-04
  9.15485E-05  7.24236E-05  5.30265E-05  3.43370E-05  1.90395E-05  8.25956E-06
  2.11282E-06  2.47061E-07  0.00000E+00  0.00000E+00  0.00000E+00  0.00000E+00
  0.00000E+00  0.00000E+00  0.00000E+00  0.00000E+00  0.00000E+00  0.00000E+00
  2.57584E-07  9.84772E-06  5.24640E-05  1.19693E-04  2.06899E-04  2.85340E-04
  1.00650E-03  1.11834E-03  1.11638E-03  1.01416E-03  8.30775E-04  6.05536E-04
  3.82177E-04  1.96976E-04  1.13994E-04  7.75864E-05  4.80960E-05  2.60432E-05
  1.12089E-05  3.05576E-06  2.32585E-07  0.00000E+00  0.00000E+00  0.00000E+00
  0.00000E+00  0.00000E+00  0.00000E+00  0.00000E+00  0.00000E+00  1.20183E-06
  3.89589E-05  1.52662E-04  3.35389E-04  5.61111E-04  7.99977E-04  1.00650E-03
  2.75444E-03  2.96225E-03  2.90116E-03  2.59727E-03  2.14637E-03  1.63346E-03
  1.12454E-03  6.79677E-04  3.34582E-04  1.52371E-04  9.54575E-05  5.57859E-05
  2.87984E-05  1.15520E-05  2.72208E-06  1.50230E-07  0.00000E+00  0.00000E+00
  0.00000E+00  0.00000E+00  0.00000E+00  0.00000E+00  7.61024E-06  7.77973E-05
  2.64603E-04  5.95225E-04  1.09599E-03  1.71289E-03  2.30190E-03  2.75444E-03
  6.47879E-03  6.83817E-03  6.58149E-03  5.77142E-03  4.72265E-03  3.59676E-03
  2.54972E-03  1.65481E-03  9.10146E-04  4.20094E-04  1.72965E-04  1.00862E-04
  5.48275E-05  2.56749E-05  9.27569E-06  1.72717E-06  5.89239E-08  0.00000E+00
  0.00000E+00  0.00000E+00  0.00000E+00  4.75912E-06  9.31767E-05  3.31109E-04
  8.28539E-04  1.68161E-03  2.83965E-03  4.25316E-03  5.53575E-03  6.47879E-03
  1.43210E-02  1.49249E-02  1.39259E-02  1.20462E-02  9.52575E-03  7.08613E-03
  4.95609E-03  3.23142E-03  1.98368E-03  1.01067E-03  4.06387E-04  1.67570E-04
  8.85912E-05  4.52429E-05  1.93769E-05  5.69440E-06  5.61813E-07  0.00000E+00
  0.00000E+00  0.00000E+00  2.78814E-06  6.93184E-05  2.88462E-04  8.77168E-04
  2.02763E-03  3.88096E-03  6.43010E-03  9.19459E-03  1.21553E-02  1.43210E-02
  3.18768E-02  3.30486E-02  3.00786E-02  2.48097E-02  1.85730E-02  1.30994E-02
  8.96469E-03  5.82708E-03  3.57917E-03  1.96112E-03  8.81755E-04  3.07306E-04
  1.38929E-04  6.88613E-05  3.16134E-05  1.17055E-05  2.40743E-06  1.02473E-07
  0.00000E+00  0.00000E+00  2.79682E-05  2.06823E-04  7.23534E-04  1.94753E-03
  4.17425E-03  7.84871E-03  1.32131E-02  1.96743E-02  2.66852E-02  3.18768E-02
  7.15885E-02  7.40850E-02  6.55338E-02  5.11204E-02  3.60338E-02  2.38148E-02
  1.52865E-02  9.69607E-03  5.86212E-03  3.27810E-03  1.59288E-03  6.17032E-04
  2.09305E-04  9.83151E-05  4.49715E-05  1.87193E-05  5.36795E-06  5.14408E-07
  0.00000E+00  3.59041E-06  9.30428E-05  4.50146E-04  1.47870E-03  3.64432E-03
  7.67439E-03  1.47791E-02  2.60292E-02  4.12611E-02  5.84241E-02  7.15885E-02
  1.68228E-01  1.74722E-01  1.46967E-01  1.04910E-01  6.88279E-02  4.24520E-02
  2.54862E-02  1.51627E-02  8.89828E-03  4.95337E-03  2.53115E-03  1.04796E-03
  3.37419E-04  1.34152E-04  5.92908E-05  2.57283E-05  8.76744E-06  1.36393E-06
  1.21066E-08  2.21205E-05  1.92878E-04  8.43388E-04  2.53903E-03  6.07977E-03
  1.30280E-02  2.62971E-02  4.94129E-02  8.58223E-02  1.30262E-01  1.68228E-01
  4.68660E-01  4.95380E-01  3.72336E-01  2.11669E-01  1.23451E-01  7.09579E-02
  4.00617E-02  2.23934E-02  1.24569E-02  6.86862E-03  3.51926E-03  1.54218E-03
  5.13266E-04  1.73659E-04  7.36864E-05  3.18668E-05  1.19755E-05  2.45760E-06
  5.89211E-07  5.07855E-05  3.19532E-04  1.31962E-03  3.80364E-03  9.11570E-03
  2.01703E-02  4.30851E-02  8.73106E-02  1.73485E-01  3.14398E-01  4.68660E-01
  1.16153E+00  1.21028E+00  8.65614E-01  4.63464E-01  2.07793E-01  1.06927E-01
  5.68420E-02  2.99721E-02  1.62895E-02  8.77129E-03  4.44150E-03  1.99503E-03
  6.84792E-04  2.13373E-04  8.70594E-05  3.67631E-05  1.44439E-05  3.60282E-06
  2.66673E-06  8.25133E-05  4.70480E-04  1.81902E-03  4.94574E-03  1.21178E-02
  2.79639E-02  6.40501E-02  1.44570E-01  3.19613E-01  7.31255E-01  1.16153E+00
  1.74221E+00  1.73408E+00  1.41754E+00  7.74595E-01  3.04651E-01  1.40379E-01
  7.20785E-02  3.67990E-02  1.91224E-02  1.01560E-02  5.12266E-03  2.34530E-03
  8.27455E-04  2.41007E-04  9.63297E-05  4.00730E-05  1.61165E-05  4.30012E-06
  5.58927E-06  1.07347E-04  5.88587E-04  2.16327E-03  5.90990E-03  1.46169E-02
  3.45031E-02  8.20953E-02  2.02516E-01  5.52561E-01  1.26214E+00  1.74221E+00
  1.76648E+00  1.66550E+00  1.55598E+00  9.20055E-01  3.54339E-01  1.55017E-01
  7.85226E-02  3.96209E-02  2.02447E-02  1.06862E-02  5.38169E-03  2.47884E-03
  8.82139E-04  2.53656E-04  9.98020E-05  4.12720E-05  1.67063E-05  4.55393E-06
  6.78482E-06  1.16862E-04  6.33844E-04  2.29400E-03  6.28676E-03  1.56086E-02
  3.71610E-02  8.97003E-02  2.30566E-01  6.74674E-01  1.46520E+00  1.76648E+00
  1.23227E+00  1.29316E+00  1.03109E+00  6.12124E-01  3.06479E-01  1.64515E-01
  8.59307E-02  4.31890E-02  2.17414E-02  1.11850E-02  5.48554E-03  2.44107E-03
  8.50370E-04  2.57835E-04  1.02503E-04  4.04676E-05  1.56177E-05  4.37607E-06
  2.85695E-06  9.64167E-05  5.09753E-04  1.90788E-03  5.13850E-03  1.25113E-02
  2.89489E-02  6.67423E-02  1.53251E-01  3.61392E-01  8.23100E-01  1.23227E+00
  1.06358E+00  1.12798E+00  8.62629E-01  5.11628E-01  2.63639E-01  1.45902E-01
  7.76480E-02  3.97270E-02  2.04359E-02  1.05870E-02  5.20818E-03  2.30532E-03
  7.96058E-04  2.47329E-04  9.88607E-05  3.91437E-05  1.50666E-05  4.14727E-06
  2.11658E-06  8.80221E-05  4.71861E-04  1.79815E-03  4.83501E-03  1.17365E-02
  2.69590E-02  6.14239E-02  1.37544E-01  3.00968E-01  6.80843E-01  1.06358E+00
  6.21262E-01  6.64429E-01  4.90071E-01  3.18164E-01  1.83379E-01  1.06788E-01
  5.92090E-02  3.16314E-02  1.71620E-02  9.04592E-03  4.48456E-03  1.95085E-03
  6.54886E-04  2.19398E-04  8.90431E-05  3.55348E-05  1.35057E-05  3.54066E-06
  6.43739E-07  6.62366E-05  3.76819E-04  1.50900E-03  4.05480E-03  9.77765E-03
  2.20297E-02  4.86209E-02  1.02970E-01  1.92102E-01  3.88126E-01  6.21262E-01
  2.81506E-01  3.00970E-01  2.45910E-01  1.67962E-01  1.10537E-01  6.83520E-02
  4.02787E-02  2.30131E-02  1.28376E-02  6.96850E-03  3.51531E-03  1.49721E-03
  4.90811E-04  1.78011E-04  7.45652E-05  3.03447E-05  1.12295E-05  2.54519E-06
  1.96803E-07  3.91427E-05  2.66895E-04  1.09326E-03  3.14404E-03  7.45990E-03
  1.62006E-02  3.36941E-02  6.59396E-02  1.20958E-01  1.99979E-01  2.81506E-01
  1.21803E-01  1.28396E-01  1.13610E-01  8.78370E-02  6.14924E-02  4.00795E-02
  2.50092E-02  1.52621E-02  8.96632E-03  4.94558E-03  2.47257E-03  1.00626E-03
  3.25262E-04  1.36953E-04  5.88257E-05  2.42140E-05  8.26124E-06  1.57876E-06
  4.94999E-08  1.38769E-05  1.62664E-04  6.91782E-04  2.10115E-03  5.02510E-03
  1.06182E-02  2.10336E-02  3.85975E-02  6.45510E-02  9.57315E-02  1.21803E-01
  5.58469E-02  5.86698E-02  5.34709E-02  4.37382E-02  3.22850E-02  2.22696E-02
  1.48004E-02  9.56194E-03  5.79026E-03  3.22262E-03  1.53210E-03  5.83362E-04
  2.14166E-04  9.93499E-05  4.34635E-05  1.76226E-05  5.14540E-06  7.85073E-07
  3.60335E-09  1.05079E-06  7.62485E-05  3.73656E-04  1.21636E-03  3.03144E-03
  6.34716E-03  1.20704E-02  2.09448E-02  3.24420E-02  4.55417E-02  5.58469E-02
  2.59192E-02  2.72207E-02  2.53373E-02  2.16294E-02  1.67720E-02  1.22558E-02
  8.59126E-03  5.63646E-03  3.47733E-03  1.88081E-03  8.34599E-04  2.92207E-04
  1.41136E-04  6.80253E-05  2.99621E-05  1.10672E-05  2.52391E-06  2.52394E-07
  0.00000E+00  0.00000E+00  2.02345E-05  1.73466E-04  5.83111E-04  1.61761E-03
  3.48574E-03  6.52571E-03  1.08937E-02  1.59857E-02  2.16195E-02  2.59192E-02
  1.20191E-02  1.26728E-02  1.20443E-02  1.07051E-02  8.69812E-03  6.60762E-03
  4.68445E-03  3.07694E-03  1.88609E-03  9.51305E-04  3.75591E-04  1.70067E-04
  8.81146E-05  4.35083E-05  1.83544E-05  5.52246E-06  9.81456E-07  2.31979E-08
  0.00000E+00  0.00000E+00  1.64742E-06  5.57543E-05  2.36035E-04  7.16222E-04
  1.69350E-03  3.25926E-03  5.40107E-03  7.67143E-03  1.01482E-02  1.20191E-02
  5.62392E-03  5.99635E-03  5.84490E-03  5.21529E-03  4.33018E-03  3.33924E-03
  2.38839E-03  1.54988E-03  8.48928E-04  3.86937E-04  1.74860E-04  1.00226E-04
  5.30193E-05  2.44860E-05  8.96071E-06  2.10093E-06  1.93468E-07  0.00000E+00
  0.00000E+00  0.00000E+00  0.00000E+00  2.84925E-06  7.56316E-05  2.77304E-04
  6.92510E-04  1.42591E-03  2.42573E-03  3.63994E-03  4.76832E-03  5.62392E-03
  2.40173E-03  2.60920E-03  2.58240E-03  2.34168E-03  1.95526E-03  1.49807E-03
  1.03224E-03  6.21375E-04  3.03042E-04  1.51770E-04  9.41408E-05  5.38171E-05
  2.75266E-05  1.11931E-05  3.08107E-06  4.01409E-07  0.00000E+00  0.00000E+00
  0.00000E+00  0.00000E+00  0.00000E+00  0.00000E+00  5.46350E-06  6.24197E-05
  2.20058E-04  5.04694E-04  9.29286E-04  1.46416E-03  1.98761E-03  2.40173E-03
  8.70839E-04  9.76921E-04  9.86755E-04  9.04122E-04  7.43616E-04  5.41957E-04
  3.39561E-04  1.72353E-04  1.12949E-04  7.57297E-05  4.63271E-05  2.50681E-05
  1.09400E-05  3.48770E-06  5.61693E-07  0.00000E+00  0.00000E+00  0.00000E+00
  0.00000E+00  0.00000E+00  0.00000E+00  0.00000E+00  0.00000E+00  1.18449E-06
  3.01011E-05  1.24297E-04  2.82403E-04  4.78314E-04  6.90146E-04  8.70839E-04
  2.39731E-04  2.81818E-04  2.86583E-04  2.57130E-04  1.97080E-04  1.29678E-04
  9.03269E-05  7.08825E-05  5.15809E-05  3.33630E-05  1.86006E-05  8.33865E-06
  2.77657E-06  5.61105E-07  3.51744E-09  0.00000E+00  0.00000E+00  0.00000E+00
  0.00000E+00  0.00000E+00  0.00000E+00  0.00000E+00  0.00000E+00  0.00000E+00
  8.64495E-07  8.20239E-06  4.15683E-05  9.55583E-05  1.70730E-04  2.39731E-04
  2.74751E-05  3.80284E-05  4.14759E-05  4.53452E-05  4.60345E-05  4.25445E-05
  3.55904E-05  2.67492E-05  1.84620E-05  1.04481E-05  4.69936E-06  1.59938E-06
  1.86853E-07  0.00000E+00  0.00000E+00  0.00000E+00  0.00000E+00  0.00000E+00
  0.00000E+00  0.00000E+00  0.00000E+00  0.00000E+00  0.00000E+00  0.00000E+00
  0.00000E+00  4.44140E-07  3.11487E-06  8.02345E-06  1.47677E-05  2.74751E-05
  5.19571E-06  8.29350E-06  1.10403E-05  1.29006E-05  1.31777E-05  1.19781E-05
  9.61396E-06  6.76231E-06  3.67073E-06  1.59947E-06  3.87629E-07  2.69930E-08
  0.00000E+00  0.00000E+00  0.00000E+00  0.00000E+00  0.00000E+00  0.00000E+00
  0.00000E+00  0.00000E+00  0.00000E+00  0.00000E+00  0.00000E+00  0.00000E+00
  0.00000E+00  0.00000E+00  0.00000E+00  6.64496E-07  2.43698E-06  5.19571E-06
  7.24635E-08  4.01420E-07  9.60249E-07  1.43623E-06  1.56435E-06  1.34766E-06
  8.89376E-07  4.01834E-07  5.40068E-08  3.01005E-09  0.00000E+00  0.00000E+00
  0.00000E+00  0.00000E+00  0.00000E+00  0.00000E+00  0.00000E+00  0.00000E+00