Siesta Version  : 4.1.5
Architecture    : unknown
Compiler version: GNU Fortran (Ubuntu 9.3.0-17ubuntu1~20.04) 9.3.0
Compiler flags  : mpif90 -O2 -fPIC -ftree-vectorize
PP flags        : -DFC_HAVE_ABORT -DMPI -DCDF -DNCDF -DNCDF_4
Libraries       : libncdf.a libfdict.a -L/usr/lib -lscalapack-openmpi -L/opt/intel/oneapi/mkl/llatest/lib/intel64 -Wl,--no-as-needed -lmkl_gf_lp64 -lmkl_sequential -lmkl_core -lpthread -lm -ldl -lnetcdff -lnetcdf -lhdf5_hl -lhdf5 -lz
PARALLEL version
NetCDF support
NetCDF-4 support

* Running on 16 nodes in parallel
>> Start of run:  10-FEB-2022  18:18:46

                           ***********************       
                           *  WELCOME TO SIESTA  *       
                           ***********************       

reinit: Reading from standard input
reinit: Dumped input in INPUT_TMP.97862
************************** Dump of input data file ****************************
%include params.fdf
NumberOfSpecies	1
NumberOfAtoms	32
%block ChemicalSpecieslabel
    1 6 C
%endblock ChemicalSpecieslabel
%block PAO.BasisSizes
    C	DZP
%endblock PAO.BasisSizes
LatticeConstant	1.0 Ang
%block LatticeVectors
   40.000000000000000     0.000000000000000     0.000000000000000
    0.000000000000000    40.000000000000000     0.000000000000000
    0.000000000000000     0.000000000000000     4.230000000000000
%endblock LatticeVectors
AtomicCoordinatesFormat  Ang
%block AtomicCoordinatesAndAtomicSpecies
    -2.001146880      2.438101870     -1.412695760 1
    -0.915527970      3.018412790     -0.702383100 1
    -2.781823880      1.486600810     -0.702417270 1
    -2.781818220      1.486566800      0.702396520 1
    -2.001088710      2.438120860      1.412626810 1
    -0.915384690      3.018438460      0.702322030 1
    -2.438101870     -2.001146870     -1.412695750 1
    -3.018412790     -0.915527970     -0.702383110 1
    -3.139075440      0.309057030     -1.412756710 1
    -3.139108710      0.309029960      1.412756700 1
    -1.486600820     -2.781823890     -0.702417280 1
    -1.486566810     -2.781818220      0.702396530 1
    -2.438120870     -2.001088710      1.412626810 1
    -3.018438460     -0.915384690      0.702322040 1
     2.001146880     -2.438101870     -1.412695750 1
     0.915527970     -3.018412790     -0.702383110 1
    -0.309057030     -3.139075440     -1.412756710 1
    -0.309029960     -3.139108710      1.412756700 1
     2.781823890     -1.486600820     -0.702417280 1
     2.781818220     -1.486566810      0.702396530 1
     2.001088720     -2.438120870      1.412626800 1
     0.915384690     -3.018438460      0.702322040 1
     2.438101870      2.001146880     -1.412695750 1
     3.018412790      0.915527980     -0.702383110 1
     3.139075440     -0.309057020     -1.412756710 1
     3.139108710     -0.309029960      1.412756700 1
     1.486600810      2.781823890     -0.702417270 1
     1.486566800      2.781818220      0.702396530 1
     2.438120860      2.001088720      1.412626810 1
     3.018438460      0.915384690      0.702322040 1
     0.309057020      3.139075440     -1.412756710 1
     0.309029960      3.139108710      1.412756710 1
%endblock AtomicCoordinatesAndAtomicSpecies
%block kgrid_Monkhorst_Pack
     1       0       0   0.0
     0       1       0   0.0
     0       0       60  0.0
%endblock kgrid_Monkhorst_Pack
%block ProjectedDensityOfStates
   -24.00  15.00  0.100  1000  eV
%endblock ProjectedDensityOfStates
BandLineScale  pi/a
%block Bandlines
1  0.000 0.000 0.000 "\Gamma"   #start at gamma
99 0.000 0.000 0.235 "X"        #99 k points to x
%endblock BandLines
WriteBands     True
************************** End of input data file *****************************

reinit: -----------------------------------------------------------------------
reinit: System Name: siesta
reinit: -----------------------------------------------------------------------
reinit: System Label: siesta
reinit: -----------------------------------------------------------------------

initatom: Reading input for the pseudopotentials and atomic orbitals ----------
Species number:   1 Atomic number:    6 Label: C

Ground state valence configuration:   2s02  2p02
Reading pseudopotential information in formatted form from C.psf

Valence configuration for pseudopotential generation:
2s( 2.00) rc: 1.54
2p( 2.00) rc: 1.54
3d( 0.00) rc: 1.54
4f( 0.00) rc: 1.54
resizes: Read basis size for species C = dzp                 
For C, standard SIESTA heuristics set lmxkb to 3
 (one more than the basis l, including polarization orbitals).
Use PS.lmax or PS.KBprojectors blocks to override.

<basis_specs>
===============================================================================
C                    Z=   6    Mass=  12.010        Charge= 0.17977+309
Lmxo=1 Lmxkb= 3    BasisType=split      Semic=F
L=0  Nsemic=0  Cnfigmx=2
          i=1  nzeta=2  polorb=0  (2s)
            splnorm:   0.15000    
               vcte:    0.0000    
               rinn:    0.0000    
               qcoe:    0.0000    
               qyuk:    0.0000    
               qwid:   0.10000E-01
                rcs:    0.0000      0.0000    
            lambdas:    1.0000      1.0000    
L=1  Nsemic=0  Cnfigmx=2
          i=1  nzeta=2  polorb=1  (2p)
            splnorm:   0.15000    
               vcte:    0.0000    
               rinn:    0.0000    
               qcoe:    0.0000    
               qyuk:    0.0000    
               qwid:   0.10000E-01
                rcs:    0.0000      0.0000    
            lambdas:    1.0000      1.0000    
-------------------------------------------------------------------------------
L=0  Nkbl=1  erefs: 0.17977+309
L=1  Nkbl=1  erefs: 0.17977+309
L=2  Nkbl=1  erefs: 0.17977+309
L=3  Nkbl=1  erefs: 0.17977+309
===============================================================================
</basis_specs>

atom: Called for C                     (Z =   6)

read_vps: Pseudopotential generation method:
read_vps: ATM3      Troullier-Martins                       
Valence charge for ps generation:    4.00000

xc_check: Exchange-correlation functional:
xc_check: Ceperley-Alder
V l=0 = -2*Zval/r beyond r=  1.5227
V l=1 = -2*Zval/r beyond r=  1.5227
V l=2 = -2*Zval/r beyond r=  1.5227
V l=3 = -2*Zval/r beyond r=  1.5038
All V_l potentials equal beyond r=  1.5227
This should be close to max(r_c) in ps generation
All pots = -2*Zval/r beyond r=  1.5227

VLOCAL1: 99.0% of the norm of Vloc inside     18.722 Ry
VLOCAL1: 99.9% of the norm of Vloc inside     42.668 Ry
atom: Maximum radius for 4*pi*r*r*local-pseudopot. charge    1.83678
atom: Maximum radius for r*vlocal+2*Zval:    1.58088
GHOST: No ghost state for L =  0
GHOST: No ghost state for L =  1
GHOST: No ghost state for L =  2
GHOST: No ghost state for L =  3

KBgen: Kleinman-Bylander projectors: 
   l= 0   rc=  1.747182   el= -1.001948   Ekb=  4.950286   kbcos=  0.319819
   l= 1   rc=  1.747182   el= -0.398598   Ekb= -4.108613   kbcos= -0.367053
   l= 2   rc=  1.930978   el=  0.002326   Ekb= -1.042946   kbcos= -0.009366
   l= 3   rc=  2.055542   el=  0.003420   Ekb= -0.408633   kbcos= -0.001262

KBgen: Total number of Kleinman-Bylander projectors:   16
atom: -------------------------------------------------------------------------

atom: SANKEY-TYPE ORBITALS:
atom: Selected multiple-zeta basis: split     

SPLIT: Orbitals with angular momentum L= 0

SPLIT: Basis orbitals for state 2s

SPLIT: PAO cut-off radius determined from an
SPLIT: energy shift=  0.003675 Ry

   izeta = 1
                 lambda =    1.000000
                     rc =    5.120028
                 energy =   -0.998767
                kinetic =    0.821771
    potential(screened) =   -1.820539
       potential(ionic) =   -5.388409

   izeta = 2
                 rmatch =    3.518811
              splitnorm =    0.150000
                 energy =   -0.873020
                kinetic =    1.256076
    potential(screened) =   -2.129096
       potential(ionic) =   -5.956015

SPLIT: Orbitals with angular momentum L= 1

SPLIT: Basis orbitals for state 2p

SPLIT: PAO cut-off radius determined from an
SPLIT: energy shift=  0.003675 Ry

   izeta = 1
                 lambda =    1.000000
                     rc =    6.253707
                 energy =   -0.395148
                kinetic =    2.370497
    potential(screened) =   -2.765644
       potential(ionic) =   -6.191332

   izeta = 2
                 rmatch =    3.745781
              splitnorm =    0.150000
                 energy =   -0.266174
                kinetic =    3.541877
    potential(screened) =   -3.808051
       potential(ionic) =   -7.637171

POLgen: Perturbative polarization orbital with L=  2

POLgen: Polarization orbital for state 2p

   izeta = 1
                     rc =    6.253707
                 energy =    1.011794
                kinetic =    2.139817
    potential(screened) =   -1.128023
       potential(ionic) =   -3.866082
atom: Total number of Sankey-type orbitals: 13

atm_pop: Valence configuration (for local Pseudopot. screening):
 2s( 2.00)                                                            
 2p( 2.00)                                                            
Vna: chval, zval:    4.00000   4.00000

Vna:  Cut-off radius for the neutral-atom potential:   6.253707

atom: _________________________________________________________________________

prinput: Basis input ----------------------------------------------------------

PAO.BasisType split     

%block ChemicalSpeciesLabel
    1    6 C                       # Species index, atomic number, species label
%endblock ChemicalSpeciesLabel

%block PAO.Basis                 # Define Basis set
C                     2                    # Species label, number of l-shells
 n=2   0   2                         # n, l, Nzeta 
   5.120      3.519   
   1.000      1.000   
 n=2   1   2 P   1                   # n, l, Nzeta, Polarization, NzetaPol
   6.254      3.746   
   1.000      1.000   
%endblock PAO.Basis

prinput: ----------------------------------------------------------------------

Dumping basis to NetCDF file C.ion.nc
coor:   Atomic-coordinates input format  =     Cartesian coordinates
coor:                                          (in Angstroms)

siesta: Atomic coordinates (Bohr) and species
siesta:     -3.78162   4.60735  -2.66961  1        1
siesta:     -1.73010   5.70398  -1.32731  1        2
siesta:     -5.25689   2.80927  -1.32738  1        3
siesta:     -5.25688   2.80921   1.32734  1        4
siesta:     -3.78151   4.60738   2.66948  1        5
siesta:     -1.72983   5.70402   1.32720  1        6
siesta:     -4.60735  -3.78162  -2.66961  1        7
siesta:     -5.70398  -1.73010  -1.32731  1        8
siesta:     -5.93200   0.58403  -2.66972  1        9
siesta:     -5.93206   0.58398   2.66972  1       10
siesta:     -2.80927  -5.25689  -1.32738  1       11
siesta:     -2.80921  -5.25688   1.32734  1       12
siesta:     -4.60738  -3.78151   2.66948  1       13
siesta:     -5.70402  -1.72983   1.32720  1       14
siesta:      3.78162  -4.60735  -2.66961  1       15
siesta:      1.73010  -5.70398  -1.32731  1       16
siesta:     -0.58403  -5.93200  -2.66972  1       17
siesta:     -0.58398  -5.93206   2.66972  1       18
siesta:      5.25689  -2.80927  -1.32738  1       19
siesta:      5.25688  -2.80921   1.32734  1       20
siesta:      3.78151  -4.60738   2.66948  1       21
siesta:      1.72983  -5.70402   1.32720  1       22
siesta:      4.60735   3.78162  -2.66961  1       23
siesta:      5.70398   1.73010  -1.32731  1       24
siesta:      5.93200  -0.58403  -2.66972  1       25
siesta:      5.93206  -0.58398   2.66972  1       26
siesta:      2.80927   5.25689  -1.32738  1       27
siesta:      2.80921   5.25688   1.32734  1       28
siesta:      4.60738   3.78151   2.66948  1       29
siesta:      5.70402   1.72983   1.32720  1       30
siesta:      0.58403   5.93200  -2.66972  1       31
siesta:      0.58398   5.93206   2.66972  1       32

siesta: System type = chain     

initatomlists: Number of atoms, orbitals, and projectors:     32   416   512

coxmol: Writing XMOL coordinates into file siesta.xyz                                                          

siesta: ******************** Simulation parameters ****************************
siesta:
siesta: The following are some of the parameters of the simulation.
siesta: A complete list of the parameters used, including default values,
siesta: can be found in file out.fdf
siesta:
redata: Spin configuration                          = none
redata: Number of spin components                   = 1
redata: Time-Reversal Symmetry                      = T
redata: Spin spiral                                 = F
redata: Long output                                 =   F
redata: Number of Atomic Species                    =        1
redata: Charge density info will appear in .RHO file
redata: Write Mulliken Pop.                         = NO
redata: Matel table size (NRTAB)                    =     1024
redata: Mesh Cutoff                                 =   199.9982 Ry
redata: Net charge of the system                    =     0.0000 |e|
redata: Min. number of SCF Iter                     =        0
redata: Max. number of SCF Iter                     =    10000
redata: SCF mix quantity                            = Hamiltonian
redata: Mix DM or H after convergence               =   F
redata: Recompute H after scf cycle                 =   F
redata: Mix DM in first SCF step                    =   T
redata: Write Pulay info on disk                    =   F
redata: New DM Occupancy tolerance                  = 0.000000000001
redata: No kicks to SCF
redata: DM Mixing Weight for Kicks                  =     0.5000
redata: Require Harris convergence for SCF          =   F
redata: Harris energy tolerance for SCF             =     0.000100 eV
redata: Require DM convergence for SCF              =   T
redata: DM tolerance for SCF                        =     0.000100
redata: Require EDM convergence for SCF             =   F
redata: EDM tolerance for SCF                       =     0.001000 eV
redata: Require H convergence for SCF               =   T
redata: Hamiltonian tolerance for SCF               =     0.001000 eV
redata: Require (free) Energy convergence for SCF   =   F
redata: (free) Energy tolerance for SCF             =     0.000100 eV
redata: Using Saved Data (generic)                  =   F
redata: Use continuation files for DM               =   T
redata: Neglect nonoverlap interactions             =   F
redata: Method of Calculation                       = Diagonalization
redata: Electronic Temperature                      =   299.9869 K
redata: Fix the spin of the system                  =   F
redata: Dynamics option                             = CG coord. optimization
redata: Variable cell                               =   F
redata: Use continuation files for CG               =   F
redata: Max atomic displ per move                   =     0.1058 Ang
redata: Maximum number of optimization moves        =      300
redata: Force tolerance                             =     0.0200 eV/Ang
mix.SCF: Pulay mixing                            = Pulay
mix.SCF:    Variant                              = stable
mix.SCF:    History steps                        = 4
mix.SCF:    Linear mixing weight                 =     0.300000
mix.SCF:    Mixing weight                        =     0.300000
mix.SCF:    SVD condition                        = 0.1000E-07
redata: Save all siesta data in one NC              =   F
redata: ***********************************************************************

%block SCF.Mixers
  Pulay
%endblock SCF.Mixers

%block SCF.Mixer.Pulay
  # Mixing method
  method pulay
  variant stable

  # Mixing options
  weight 0.3000
  weight.linear 0.3000
  history 4
%endblock SCF.Mixer.Pulay

DM_history_depth set to one: no extrapolation allowed by default for geometry relaxation
Size of DM history Fstack: 1
Total number of electrons:   128.000000
Total ionic charge:   128.000000

* ProcessorY, Blocksize:    4  24


* Orbital distribution balance (max,min):    48    24

k-point displ. along   3 input, could be:     0.00    0.50
 Kpoints in:           31 . Kpoints trimmed:           31

siesta: k-grid: Number of k-points =    31
siesta: k-grid: Cutoff (effective) =    20.000 Ang
siesta: k-grid: Supercell and displacements
siesta: k-grid:    1   0   0      0.000
siesta: k-grid:    0   1   0      0.000
siesta: k-grid:    0   0  60      0.000

diag: Algorithm                                     = D&C
diag: Parallel over k                               =   F
diag: Use parallel 2D distribution                  =   T
diag: Parallel block-size                           = 24
diag: Parallel distribution                         =     4 x     4
diag: Used triangular part                          = Lower
diag: Absolute tolerance                            =  0.100E-15
diag: Orthogonalization factor                      =  0.100E-05
diag: Memory factor                                 =  1.0000
Using LatticeConstant from fdf file for BandLinesScale:    1.889727 Bohr
Beware any cell changes by the end of the run
Using LatticeConstant from fdf file for BandLinesScale:    1.889727 Bohr
Beware any cell changes by the end of the run

superc: Internal auxiliary supercell:     1 x     1 x     5  =       5
superc: Number of atoms, orbitals, and projectors:    160   2080   2560


ts: **************************************************************
ts: Save H and S matrices                           =    F
ts: Save DM and EDM matrices                        =    F
ts: Only save the overlap matrix S                  =    F
ts: **************************************************************

************************ Begin: TS CHECKS AND WARNINGS ************************
************************ End: TS CHECKS AND WARNINGS **************************


                     ====================================
                        Begin CG opt. move =      0
                     ====================================

superc: Internal auxiliary supercell:     1 x     1 x     5  =       5
superc: Number of atoms, orbitals, and projectors:    160   2080   2560

outcell: Unit cell vectors (Ang):
       40.000000    0.000000    0.000000
        0.000000   40.000000    0.000000
        0.000000    0.000000    4.230000

outcell: Cell vector modules (Ang)   :   40.000000   40.000000    4.230000
outcell: Cell angles (23,13,12) (deg):     90.0000     90.0000     90.0000
outcell: Cell volume (Ang**3)        :   6768.0000
<dSpData1D:S at geom step 0
  <sparsity:sparsity for geom step 0
    nrows_g=416 nrows=48 sparsity=.2615 nnzs=45258, refcount: 7>
  <dData1D:(new from dSpData1D) n=45258, refcount: 1>
refcount: 1>
new_DM -- step:     1
Initializing Density Matrix...

Attempting to read DM from file... Failed...
DM filled with atomic data:
<dSpData2D:DM initialized from atoms
  <sparsity:sparsity for geom step 0
    nrows_g=416 nrows=48 sparsity=.2615 nnzs=45258, refcount: 8>
  <dData2D:DM n=45258 m=1, refcount: 1>
refcount: 1>
No. of atoms with KB's overlaping orbs in proc 0. Max # of overlaps:      53     271
New grid distribution:   1
           1       1:  180    1:   45    1:    5
           2       1:  180    1:   45    6:   10
           3       1:  180    1:   45   11:   14
           4       1:  180    1:   45   15:   18
           5       1:  180   46:   90    1:    5
           6       1:  180   46:   90    6:   10
           7       1:  180   46:   90   11:   14
           8       1:  180   46:   90   15:   18
           9       1:  180   91:  135    1:    5
          10       1:  180   91:  135    6:   10
          11       1:  180   91:  135   11:   14
          12       1:  180   91:  135   15:   18
          13       1:  180  136:  180    1:    5
          14       1:  180  136:  180    6:   10
          15       1:  180  136:  180   11:   14
          16       1:  180  136:  180   15:   18

InitMesh: MESH =   360 x   360 x    36 =     4665600
InitMesh: (bp) =   180 x   180 x    18 =      583200
InitMesh: Mesh cutoff (required, used) =   199.998   200.182 Ry
ExtMesh (bp) on 0 =   240 x   105 x    65 =     1638000
New grid distribution:   2
           1      24:  173    9:   23    1:   18
           2       8:   23    9:   23    1:   18
           3       1:    7    9:   23    1:   18
           4     171:  180    1:    8    1:   18
           5      24:  173   24:  172    1:   18
           6       1:    7   24:  172    1:   18
           7     174:  180    9:   23    1:   18
           8       1:   10    1:    8    1:   18
           9       8:   23   24:  172    1:   18
          10     174:  180   24:  172    1:   18
          11      11:   23    1:    8    1:   18
          12       1:   10  173:  180    1:   18
          13      24:  170    1:    8    1:   18
          14      24:  170  173:  180    1:   18
          15      11:   23  173:  180    1:   18
          16     171:  180  173:  180    1:   18
New grid distribution:   3
           1      44:  170   13:   56    1:   18
           2      11:   43   13:   56    1:   18
           3       1:   10   13:   56    1:   18
           4     167:  180    1:   12    1:   18
           5      11:   66   57:  168    1:   18
           6       1:   10   57:  168    1:   18
           7     171:  180   13:   56    1:   18
           8       1:   14    1:   12    1:   18
           9      67:  169   57:  168    1:   18
          10     170:  180   57:  168    1:   18
          11      15:   43    1:   12    1:   18
          12       1:   14  169:  180    1:   18
          13      44:  166    1:   12    1:   18
          14      67:  166  169:  180    1:   18
          15      15:   66  169:  180    1:   18
          16     167:  180  169:  180    1:   18
Setting up quadratic distribution...
ExtMesh (bp) on 0 =   210 x    75 x    78 =     1228500
PhiOnMesh: Number of (b)points on node 0 =                40500
PhiOnMesh: nlist on node 0 =               342232

stepf: Fermi-Dirac step function

siesta: Program's energy decomposition (eV):
siesta: Ebs     =     -1431.707039
siesta: Eions   =      8179.116033
siesta: Ena     =      1792.797528
siesta: Ekin    =      3643.401522
siesta: Enl     =      -464.814636
siesta: Eso     =         0.000000
siesta: Edftu   =         0.000000
siesta: DEna    =      -244.601785
siesta: DUscf   =        25.842251
siesta: DUext   =         0.000000
siesta: Exc     =     -1533.164139
siesta: eta*DQ  =         0.000000
siesta: Emadel  =         0.000000
siesta: Emeta   =         0.000000
siesta: Emolmec =         0.000000
siesta: Ekinion =         0.000000
siesta: Eharris =     -4870.371633
siesta: Etot    =     -4959.655293
siesta: FreeEng =     -4959.655293

        iscf     Eharris(eV)        E_KS(eV)     FreeEng(eV)     dDmax    Ef(eV) dHmax(eV)
   scf:    1    -4870.371633    -4959.655293    -4959.655293  1.804710 -7.444882  6.571541
timer: Routine,Calls,Time,% = IterSCF        1       3.055  65.34
   scf:    2    -4966.463222    -4963.450273    -4963.450273  0.046273 -5.961968  2.925753
   scf:    3    -4965.916986    -4964.810184    -4964.810185  0.051004 -4.919047  0.508032
   scf:    4    -4965.047469    -4964.948127    -4964.948128  0.020005 -4.694721  0.029125
   scf:    5    -4964.948803    -4964.949541    -4964.949541  0.002180 -4.715256  0.074040
   scf:    6    -4964.950789    -4964.950502    -4964.950503  0.000563 -4.747256  0.003834
   scf:    7    -4964.950513    -4964.950512    -4964.950513  0.000071 -4.745672  0.000450

SCF Convergence by DM+H criterion
max |DM_out - DM_in|         :     0.0000711389
max |H_out - H_in|      (eV) :     0.0004504474
SCF cycle converged after 7 iterations

Using DM_out to compute the final energy and forces
No. of atoms with KB's overlaping orbs in proc 0. Max # of overlaps:      53     271

siesta: E_KS(eV) =            -4964.9505

siesta: E_KS - E_eggbox =     -4964.9505

siesta: Atomic forces (eV/Ang):
----------------------------------------
   Tot    0.000000    0.000000   -0.000459
----------------------------------------
   Max    0.194238
   Res    0.117331    sqrt( Sum f_i^2 / 3N )
----------------------------------------
   Max    0.194238    constrained

Stress tensor Voigt[x,y,z,yz,xz,xy] (kbar):       -2.30       -2.30       -4.66        0.00        0.00       -0.00
(Free)E + p*V (eV/cell)    -4951.8983
Target enthalpy (eV/cell)    -4964.9505

                     ====================================
                        Begin CG opt. move =      1
                     ====================================

superc: Internal auxiliary supercell:     1 x     1 x     5  =       5
superc: Number of atoms, orbitals, and projectors:    160   2080   2560

outcell: Unit cell vectors (Ang):
       40.000000    0.000000    0.000000
        0.000000   40.000000    0.000000
        0.000000    0.000000    4.230000

outcell: Cell vector modules (Ang)   :   40.000000   40.000000    4.230000
outcell: Cell angles (23,13,12) (deg):     90.0000     90.0000     90.0000
outcell: Cell volume (Ang**3)        :   6768.0000
<dSpData1D:S at geom step 1
  <sparsity:sparsity for geom step 1
    nrows_g=416 nrows=48 sparsity=.2615 nnzs=45258, refcount: 7>
  <dData1D:(new from dSpData1D) n=45258, refcount: 1>
refcount: 1>
new_DM -- step:     2
Re-using DM from previous geometries...
Number of DMs in history: 1
 DM extrapolation coefficients: 
1   1.00000
New DM after history re-use:
<dSpData2D:SpM extrapolated using coords
  <sparsity:sparsity for geom step 1
    nrows_g=416 nrows=48 sparsity=.2615 nnzs=45258, refcount: 9>
  <dData2D:(temp array for extrapolation) n=45258 m=1, refcount: 1>
refcount: 1>
Note: For starting DM, Qtot, Tr[D*S] =        128.00000000        127.87184719
No. of atoms with KB's overlaping orbs in proc 0. Max # of overlaps:      53     271
New grid distribution:   1
           1       1:  180    1:   45    1:    5
           2       1:  180    1:   45    6:   10
           3       1:  180    1:   45   11:   14
           4       1:  180    1:   45   15:   18
           5       1:  180   46:   90    1:    5
           6       1:  180   46:   90    6:   10
           7       1:  180   46:   90   11:   14
           8       1:  180   46:   90   15:   18
           9       1:  180   91:  135    1:    5
          10       1:  180   91:  135    6:   10
          11       1:  180   91:  135   11:   14
          12       1:  180   91:  135   15:   18
          13       1:  180  136:  180    1:    5
          14       1:  180  136:  180    6:   10
          15       1:  180  136:  180   11:   14
          16       1:  180  136:  180   15:   18

InitMesh: MESH =   360 x   360 x    36 =     4665600
InitMesh: (bp) =   180 x   180 x    18 =      583200
InitMesh: Mesh cutoff (required, used) =   199.998   200.182 Ry
ExtMesh (bp) on 0 =   240 x   105 x    65 =     1638000
New grid distribution:   2
           1      24:  173    9:   23    1:   18
           2       8:   23    9:   23    1:   18
           3       1:    7    9:   23    1:   18
           4     171:  180    1:    8    1:   18
           5      24:  173   24:  172    1:   18
           6       1:    7   24:  172    1:   18
           7     174:  180    9:   23    1:   18
           8       1:   10    1:    8    1:   18
           9       8:   23   24:  172    1:   18
          10     174:  180   24:  172    1:   18
          11      11:   23    1:    8    1:   18
          12       1:   10  173:  180    1:   18
          13      24:  170    1:    8    1:   18
          14      24:  170  173:  180    1:   18
          15      11:   23  173:  180    1:   18
          16     171:  180  173:  180    1:   18
New grid distribution:   3
           1      37:  170   13:   57    1:   18
           2      11:   36   13:   57    1:   18
           3       1:   10   13:   57    1:   18
           4     167:  180    1:   12    1:   18
           5      11:   68   58:  168    1:   18
           6       1:   10   58:  168    1:   18
           7     171:  180   13:   57    1:   18
           8       1:   14    1:   12    1:   18
           9      69:  169   58:  168    1:   18
          10     170:  180   58:  168    1:   18
          11      15:   36    1:   12    1:   18
          12       1:   14  169:  180    1:   18
          13      37:  166    1:   12    1:   18
          14      69:  166  169:  180    1:   18
          15      15:   68  169:  180    1:   18
          16     167:  180  169:  180    1:   18
Setting up quadratic distribution...
ExtMesh (bp) on 0 =   210 x    75 x    78 =     1228500
PhiOnMesh: Number of (b)points on node 0 =                40500
PhiOnMesh: nlist on node 0 =               344457

        iscf     Eharris(eV)        E_KS(eV)     FreeEng(eV)     dDmax    Ef(eV) dHmax(eV)
   scf:    1    -4966.125385    -4964.998281    -4964.998281  0.016921 -4.676866  0.129562
   scf:    2    -4964.977824    -4964.993185    -4964.993186  0.003305 -4.755075  0.205126
   scf:    3    -4965.002304    -4965.000160    -4965.000160  0.001830 -4.709148  0.011202
   scf:    4    -4965.000198    -4965.000174    -4965.000174  0.000276 -4.712941  0.002535
   scf:    5    -4965.000177    -4965.000176    -4965.000176  0.000075 -4.713772  0.000370

SCF Convergence by DM+H criterion
max |DM_out - DM_in|         :     0.0000748105
max |H_out - H_in|      (eV) :     0.0003701483
SCF cycle converged after 5 iterations

Using DM_out to compute the final energy and forces
No. of atoms with KB's overlaping orbs in proc 0. Max # of overlaps:      53     271

siesta: E_KS(eV) =            -4965.0002

siesta: Atomic forces (eV/Ang):
----------------------------------------
   Tot    0.000000    0.000000   -0.003521
----------------------------------------
   Max    0.549276
   Res    0.300487    sqrt( Sum f_i^2 / 3N )
----------------------------------------
   Max    0.549276    constrained

Stress tensor Voigt[x,y,z,yz,xz,xy] (kbar):       -1.42       -1.42       -3.46       -0.00       -0.00       -0.00
(Free)E + p*V (eV/cell)    -4956.1437
Target enthalpy (eV/cell)    -4965.0002

                     ====================================
                        Begin CG opt. move =      2
                     ====================================

superc: Internal auxiliary supercell:     1 x     1 x     5  =       5
superc: Number of atoms, orbitals, and projectors:    160   2080   2560

outcell: Unit cell vectors (Ang):
       40.000000    0.000000    0.000000
        0.000000   40.000000    0.000000
        0.000000    0.000000    4.230000

outcell: Cell vector modules (Ang)   :   40.000000   40.000000    4.230000
outcell: Cell angles (23,13,12) (deg):     90.0000     90.0000     90.0000
outcell: Cell volume (Ang**3)        :   6768.0000
<dSpData1D:S at geom step 2
  <sparsity:sparsity for geom step 2
    nrows_g=416 nrows=48 sparsity=.2615 nnzs=45258, refcount: 7>
  <dData1D:(new from dSpData1D) n=45258, refcount: 1>
refcount: 1>
new_DM -- step:     3
Re-using DM from previous geometries...
Number of DMs in history: 1
 DM extrapolation coefficients: 
1   1.00000
New DM after history re-use:
<dSpData2D:SpM extrapolated using coords
  <sparsity:sparsity for geom step 2
    nrows_g=416 nrows=48 sparsity=.2615 nnzs=45258, refcount: 9>
  <dData2D:(temp array for extrapolation) n=45258 m=1, refcount: 1>
refcount: 1>
No. of atoms with KB's overlaping orbs in proc 0. Max # of overlaps:      53     271
New grid distribution:   1
           1       1:  180    1:   45    1:    5
           2       1:  180    1:   45    6:   10
           3       1:  180    1:   45   11:   14
           4       1:  180    1:   45   15:   18
           5       1:  180   46:   90    1:    5
           6       1:  180   46:   90    6:   10
           7       1:  180   46:   90   11:   14
           8       1:  180   46:   90   15:   18
           9       1:  180   91:  135    1:    5
          10       1:  180   91:  135    6:   10
          11       1:  180   91:  135   11:   14
          12       1:  180   91:  135   15:   18
          13       1:  180  136:  180    1:    5
          14       1:  180  136:  180    6:   10
          15       1:  180  136:  180   11:   14
          16       1:  180  136:  180   15:   18

InitMesh: MESH =   360 x   360 x    36 =     4665600
InitMesh: (bp) =   180 x   180 x    18 =      583200
InitMesh: Mesh cutoff (required, used) =   199.998   200.182 Ry
ExtMesh (bp) on 0 =   240 x   105 x    65 =     1638000
New grid distribution:   2
           1      24:  173    9:   23    1:   18
           2       8:   23    9:   23    1:   18
           3       1:    7    9:   23    1:   18
           4     171:  180    1:    8    1:   18
           5      24:  173   24:  172    1:   18
           6       1:    7   24:  172    1:   18
           7     174:  180    9:   23    1:   18
           8       1:   10    1:    8    1:   18
           9       8:   23   24:  172    1:   18
          10     174:  180   24:  172    1:   18
          11      11:   23    1:    8    1:   18
          12       1:   10  173:  180    1:   18
          13      24:  170    1:    8    1:   18
          14      24:  170  173:  180    1:   18
          15      11:   23  173:  180    1:   18
          16     171:  180  173:  180    1:   18
New grid distribution:   3
           1      39:  170   13:   57    1:   18
           2      11:   38   13:   57    1:   18
           3       1:   10   13:   57    1:   18
           4     167:  180    1:   12    1:   18
           5      11:   67   58:  168    1:   18
           6       1:   10   58:  168    1:   18
           7     171:  180   13:   57    1:   18
           8       1:   14    1:   12    1:   18
           9      68:  169   58:  168    1:   18
          10     170:  180   58:  168    1:   18
          11      15:   38    1:   12    1:   18
          12       1:   14  169:  180    1:   18
          13      39:  166    1:   12    1:   18
          14      68:  166  169:  180    1:   18
          15      15:   67  169:  180    1:   18
          16     167:  180  169:  180    1:   18
Setting up quadratic distribution...
ExtMesh (bp) on 0 =   210 x    75 x    78 =     1228500
PhiOnMesh: Number of (b)points on node 0 =                40500
PhiOnMesh: nlist on node 0 =               344118

        iscf     Eharris(eV)        E_KS(eV)     FreeEng(eV)     dDmax    Ef(eV) dHmax(eV)
   scf:    1    -4964.830271    -4965.001794    -4965.001794  0.002613 -4.723955  0.020427
   scf:    2    -4965.001263    -4965.001650    -4965.001650  0.000519 -4.711668  0.032534
   scf:    3    -4965.001887    -4965.001833    -4965.001833  0.000289 -4.718903  0.001765
   scf:    4    -4965.001843    -4965.001842    -4965.001842  0.000044 -4.718307  0.000393

SCF Convergence by DM+H criterion
max |DM_out - DM_in|         :     0.0000436915
max |H_out - H_in|      (eV) :     0.0003928622
SCF cycle converged after 4 iterations

Using DM_out to compute the final energy and forces
No. of atoms with KB's overlaping orbs in proc 0. Max # of overlaps:      53     271

siesta: E_KS(eV) =            -4965.0018

siesta: Atomic forces (eV/Ang):
----------------------------------------
   Tot    0.000000   -0.000000    0.000203
----------------------------------------
   Max    0.457621
   Res    0.254249    sqrt( Sum f_i^2 / 3N )
----------------------------------------
   Max    0.457621    constrained

Stress tensor Voigt[x,y,z,yz,xz,xy] (kbar):       -1.55       -1.55       -3.64       -0.00       -0.00       -0.00
(Free)E + p*V (eV/cell)    -4955.5094
Target enthalpy (eV/cell)    -4965.0018

cgvc: Finished line minimization    1.  Mean atomic displacement =    0.0299

                     ====================================
                        Begin CG opt. move =      3
                     ====================================

superc: Internal auxiliary supercell:     1 x     1 x     5  =       5
superc: Number of atoms, orbitals, and projectors:    160   2080   2560

outcell: Unit cell vectors (Ang):
       40.000000    0.000000    0.000000
        0.000000   40.000000    0.000000
        0.000000    0.000000    4.230000

outcell: Cell vector modules (Ang)   :   40.000000   40.000000    4.230000
outcell: Cell angles (23,13,12) (deg):     90.0000     90.0000     90.0000
outcell: Cell volume (Ang**3)        :   6768.0000
<dSpData1D:S at geom step 3
  <sparsity:sparsity for geom step 3
    nrows_g=416 nrows=48 sparsity=.2615 nnzs=45258, refcount: 7>
  <dData1D:(new from dSpData1D) n=45258, refcount: 1>
refcount: 1>
new_DM -- step:     4
Re-using DM from previous geometries...
Number of DMs in history: 1
 DM extrapolation coefficients: 
1   1.00000
New DM after history re-use:
<dSpData2D:SpM extrapolated using coords
  <sparsity:sparsity for geom step 3
    nrows_g=416 nrows=48 sparsity=.2615 nnzs=45258, refcount: 9>
  <dData2D:(temp array for extrapolation) n=45258 m=1, refcount: 1>
refcount: 1>
No. of atoms with KB's overlaping orbs in proc 0. Max # of overlaps:      53     271
New grid distribution:   1
           1       1:  180    1:   45    1:    5
           2       1:  180    1:   45    6:   10
           3       1:  180    1:   45   11:   14
           4       1:  180    1:   45   15:   18
           5       1:  180   46:   90    1:    5
           6       1:  180   46:   90    6:   10
           7       1:  180   46:   90   11:   14
           8       1:  180   46:   90   15:   18
           9       1:  180   91:  135    1:    5
          10       1:  180   91:  135    6:   10
          11       1:  180   91:  135   11:   14
          12       1:  180   91:  135   15:   18
          13       1:  180  136:  180    1:    5
          14       1:  180  136:  180    6:   10
          15       1:  180  136:  180   11:   14
          16       1:  180  136:  180   15:   18

InitMesh: MESH =   360 x   360 x    36 =     4665600
InitMesh: (bp) =   180 x   180 x    18 =      583200
InitMesh: Mesh cutoff (required, used) =   199.998   200.182 Ry
ExtMesh (bp) on 0 =   240 x   105 x    65 =     1638000
New grid distribution:   2
           1      24:  173    9:   23    1:   18
           2       8:   23    9:   23    1:   18
           3       1:    7    9:   23    1:   18
           4     171:  180    1:    8    1:   18
           5      24:  173   24:  172    1:   18
           6       1:    7   24:  172    1:   18
           7     174:  180    9:   23    1:   18
           8       1:   10    1:    8    1:   18
           9       8:   23   24:  172    1:   18
          10     174:  180   24:  172    1:   18
          11      11:   23    1:    8    1:   18
          12       1:   10  173:  180    1:   18
          13      24:  170    1:    8    1:   18
          14      24:  170  173:  180    1:   18
          15      11:   23  173:  180    1:   18
          16     171:  180  173:  180    1:   18
New grid distribution:   3
           1      37:  170   13:   58    1:   18
           2      11:   36   13:   58    1:   18
           3       1:   10   13:   58    1:   18
           4     167:  180    1:   12    1:   18
           5      37:  166    1:   12    1:   18
           6       1:   10   59:  168    1:   18
           7     171:  180   13:   58    1:   18
           8       1:   14    1:   12    1:   18
           9      69:  169   59:  168    1:   18
          10     170:  180   59:  168    1:   18
          11      15:   36    1:   12    1:   18
          12       1:   14  169:  180    1:   18
          13      11:   68   59:  168    1:   18
          14      69:  166  169:  180    1:   18
          15      15:   68  169:  180    1:   18
          16     167:  180  169:  180    1:   18
Setting up quadratic distribution...
ExtMesh (bp) on 0 =   210 x    75 x    78 =     1228500
PhiOnMesh: Number of (b)points on node 0 =                40500
PhiOnMesh: nlist on node 0 =               346039

        iscf     Eharris(eV)        E_KS(eV)     FreeEng(eV)     dDmax    Ef(eV) dHmax(eV)
   scf:    1    -4966.068891    -4965.058412    -4965.058413  0.008031 -4.764610  0.061035
   scf:    2    -4965.057891    -4965.058453    -4965.058454  0.002086 -4.800521  0.063340
   scf:    3    -4965.058918    -4965.058809    -4965.058809  0.000893 -4.784170  0.004451
   scf:    4    -4965.058821    -4965.058815    -4965.058816  0.000133 -4.785675  0.000501
   scf:    5    -4965.058816    -4965.058816    -4965.058816  0.000026 -4.785709  0.000394

SCF Convergence by DM+H criterion
max |DM_out - DM_in|         :     0.0000255653
max |H_out - H_in|      (eV) :     0.0003936216
SCF cycle converged after 5 iterations

Using DM_out to compute the final energy and forces
No. of atoms with KB's overlaping orbs in proc 0. Max # of overlaps:      53     271

siesta: E_KS(eV) =            -4965.0588

siesta: Atomic forces (eV/Ang):
----------------------------------------
   Tot    0.000000   -0.000000   -0.003505
----------------------------------------
   Max    0.115670
   Res    0.060933    sqrt( Sum f_i^2 / 3N )
----------------------------------------
   Max    0.115670    constrained

Stress tensor Voigt[x,y,z,yz,xz,xy] (kbar):       -0.35       -0.35       -3.60       -0.00        0.00        0.00
(Free)E + p*V (eV/cell)    -4959.0127
Target enthalpy (eV/cell)    -4965.0588

                     ====================================
                        Begin CG opt. move =      4
                     ====================================

superc: Internal auxiliary supercell:     1 x     1 x     5  =       5
superc: Number of atoms, orbitals, and projectors:    160   2080   2560

outcell: Unit cell vectors (Ang):
       40.000000    0.000000    0.000000
        0.000000   40.000000    0.000000
        0.000000    0.000000    4.230000

outcell: Cell vector modules (Ang)   :   40.000000   40.000000    4.230000
outcell: Cell angles (23,13,12) (deg):     90.0000     90.0000     90.0000
outcell: Cell volume (Ang**3)        :   6768.0000
<dSpData1D:S at geom step 4
  <sparsity:sparsity for geom step 4
    nrows_g=416 nrows=48 sparsity=.2560 nnzs=44298, refcount: 7>
  <dData1D:(new from dSpData1D) n=44298, refcount: 1>
refcount: 1>
new_DM -- step:     5
Re-using DM from previous geometries...
Number of DMs in history: 1
 DM extrapolation coefficients: 
1   1.00000
New DM after history re-use:
<dSpData2D:SpM extrapolated using coords
  <sparsity:sparsity for geom step 4
    nrows_g=416 nrows=48 sparsity=.2560 nnzs=44298, refcount: 9>
  <dData2D:(temp array for extrapolation) n=44298 m=1, refcount: 1>
refcount: 1>
Note: For starting DM, Qtot, Tr[D*S] =        128.00000000        127.81900915
No. of atoms with KB's overlaping orbs in proc 0. Max # of overlaps:      53     271
New grid distribution:   1
           1       1:  180    1:   45    1:    5
           2       1:  180    1:   45    6:   10
           3       1:  180    1:   45   11:   14
           4       1:  180    1:   45   15:   18
           5       1:  180   46:   90    1:    5
           6       1:  180   46:   90    6:   10
           7       1:  180   46:   90   11:   14
           8       1:  180   46:   90   15:   18
           9       1:  180   91:  135    1:    5
          10       1:  180   91:  135    6:   10
          11       1:  180   91:  135   11:   14
          12       1:  180   91:  135   15:   18
          13       1:  180  136:  180    1:    5
          14       1:  180  136:  180    6:   10
          15       1:  180  136:  180   11:   14
          16       1:  180  136:  180   15:   18

InitMesh: MESH =   360 x   360 x    36 =     4665600
InitMesh: (bp) =   180 x   180 x    18 =      583200
InitMesh: Mesh cutoff (required, used) =   199.998   200.182 Ry
ExtMesh (bp) on 0 =   240 x   105 x    65 =     1638000
New grid distribution:   2
           1      24:  173    9:   23    1:   18
           2       8:   23   10:   23    1:   18
           3      11:   23    1:    9    1:   18
           4       1:   10    1:    9    1:   18
           5      24:  173   24:  172    1:   18
           6     174:  180   24:  172    1:   18
           7     174:  180    9:   23    1:   18
           8     171:  180  173:  180    1:   18
           9       8:   23   24:  171    1:   18
          10       1:    7   24:  171    1:   18
          11       1:    7   10:   23    1:   18
          12     171:  180    1:    8    1:   18
          13      24:  170    1:    8    1:   18
          14      24:  170  173:  180    1:   18
          15      11:   23  172:  180    1:   18
          16       1:   10  172:  180    1:   18
New grid distribution:   3
           1      32:  170   13:   57    1:   18
           2      11:   31   13:   57    1:   18
           3       1:   10   13:   57    1:   18
           4     167:  180    1:   12    1:   18
           5      11:   65   58:  168    1:   18
           6       1:   10   58:  168    1:   18
           7     171:  180   13:   57    1:   18
           8       1:   14    1:   12    1:   18
           9      66:  169   58:  168    1:   18
          10     170:  180   58:  168    1:   18
          11      15:   31    1:   12    1:   18
          12       1:   14  169:  180    1:   18
          13      32:  166    1:   12    1:   18
          14      66:  166  169:  180    1:   18
          15      15:   65  169:  180    1:   18
          16     167:  180  169:  180    1:   18
Setting up quadratic distribution...
ExtMesh (bp) on 0 =   210 x    75 x    78 =     1228500
PhiOnMesh: Number of (b)points on node 0 =                40500
PhiOnMesh: nlist on node 0 =               349293

        iscf     Eharris(eV)        E_KS(eV)     FreeEng(eV)     dDmax    Ef(eV) dHmax(eV)
   scf:    1    -4966.567040    -4965.002295    -4965.002295  0.011479 -4.859767  0.093934
   scf:    2    -4965.000898    -4965.002340    -4965.002341  0.003249 -4.914168  0.099284
   scf:    3    -4965.003521    -4965.003255    -4965.003255  0.001396 -4.889532  0.007014
   scf:    4    -4965.003275    -4965.003262    -4965.003263  0.000201 -4.891759  0.000904
   scf:    5    -4965.003264    -4965.003263    -4965.003264  0.000041 -4.891823  0.000697

SCF Convergence by DM+H criterion
max |DM_out - DM_in|         :     0.0000413658
max |H_out - H_in|      (eV) :     0.0006966375
SCF cycle converged after 5 iterations

Using DM_out to compute the final energy and forces
No. of atoms with KB's overlaping orbs in proc 0. Max # of overlaps:      53     271

siesta: E_KS(eV) =            -4965.0033

siesta: Atomic forces (eV/Ang):
----------------------------------------
   Tot    0.000000   -0.000000   -0.000552
----------------------------------------
   Max    0.435690
   Res    0.253003    sqrt( Sum f_i^2 / 3N )
----------------------------------------
   Max    0.435690    constrained

Stress tensor Voigt[x,y,z,yz,xz,xy] (kbar):        1.51        1.51       -3.58        0.00       -0.00        0.00
(Free)E + p*V (eV/cell)    -4964.2084
Target enthalpy (eV/cell)    -4965.0033

                     ====================================
                        Begin CG opt. move =      5
                     ====================================

superc: Internal auxiliary supercell:     1 x     1 x     5  =       5
superc: Number of atoms, orbitals, and projectors:    160   2080   2560

outcell: Unit cell vectors (Ang):
       40.000000    0.000000    0.000000
        0.000000   40.000000    0.000000
        0.000000    0.000000    4.230000

outcell: Cell vector modules (Ang)   :   40.000000   40.000000    4.230000
outcell: Cell angles (23,13,12) (deg):     90.0000     90.0000     90.0000
outcell: Cell volume (Ang**3)        :   6768.0000
<dSpData1D:S at geom step 5
  <sparsity:sparsity for geom step 5
    nrows_g=416 nrows=48 sparsity=.2615 nnzs=45258, refcount: 7>
  <dData1D:(new from dSpData1D) n=45258, refcount: 1>
refcount: 1>
new_DM -- step:     6
Re-using DM from previous geometries...
Number of DMs in history: 1
 DM extrapolation coefficients: 
1   1.00000
New DM after history re-use:
<dSpData2D:SpM extrapolated using coords
  <sparsity:sparsity for geom step 5
    nrows_g=416 nrows=48 sparsity=.2615 nnzs=45258, refcount: 9>
  <dData2D:(temp array for extrapolation) n=45258 m=1, refcount: 1>
refcount: 1>
Note: For starting DM, Qtot, Tr[D*S] =        128.00000000        128.14685816
No. of atoms with KB's overlaping orbs in proc 0. Max # of overlaps:      53     271
New grid distribution:   1
           1       1:  180    1:   45    1:    5
           2       1:  180    1:   45    6:   10
           3       1:  180    1:   45   11:   14
           4       1:  180    1:   45   15:   18
           5       1:  180   46:   90    1:    5
           6       1:  180   46:   90    6:   10
           7       1:  180   46:   90   11:   14
           8       1:  180   46:   90   15:   18
           9       1:  180   91:  135    1:    5
          10       1:  180   91:  135    6:   10
          11       1:  180   91:  135   11:   14
          12       1:  180   91:  135   15:   18
          13       1:  180  136:  180    1:    5
          14       1:  180  136:  180    6:   10
          15       1:  180  136:  180   11:   14
          16       1:  180  136:  180   15:   18

InitMesh: MESH =   360 x   360 x    36 =     4665600
InitMesh: (bp) =   180 x   180 x    18 =      583200
InitMesh: Mesh cutoff (required, used) =   199.998   200.182 Ry
ExtMesh (bp) on 0 =   240 x   105 x    65 =     1638000
New grid distribution:   2
           1      24:  173    9:   23    1:   18
           2       8:   23   10:   23    1:   18
           3      11:   23    1:    9    1:   18
           4       1:   10    1:    9    1:   18
           5      24:  173   24:  172    1:   18
           6       1:    7   24:  172    1:   18
           7     174:  180    9:   23    1:   18
           8       1:   10  173:  180    1:   18
           9       8:   23   24:  172    1:   18
          10     174:  180   24:  172    1:   18
          11       1:    7   10:   23    1:   18
          12     171:  180    1:    8    1:   18
          13      24:  170    1:    8    1:   18
          14      24:  170  173:  180    1:   18
          15      11:   23  173:  180    1:   18
          16     171:  180  173:  180    1:   18
New grid distribution:   3
           1      37:  170   13:   58    1:   18
           2      11:   36   13:   58    1:   18
           3       1:   10   13:   58    1:   18
           4     167:  180    1:   12    1:   18
           5      37:  166    1:   12    1:   18
           6       1:   10   59:  168    1:   18
           7     171:  180   13:   58    1:   18
           8       1:   14    1:   12    1:   18
           9      68:  169   59:  168    1:   18
          10     170:  180   59:  168    1:   18
          11      15:   36    1:   12    1:   18
          12       1:   14  169:  180    1:   18
          13      11:   67   59:  168    1:   18
          14      68:  166  169:  180    1:   18
          15      15:   67  169:  180    1:   18
          16     167:  180  169:  180    1:   18
Setting up quadratic distribution...
ExtMesh (bp) on 0 =   210 x    75 x    78 =     1228500
PhiOnMesh: Number of (b)points on node 0 =                40500
PhiOnMesh: nlist on node 0 =               346629

        iscf     Eharris(eV)        E_KS(eV)     FreeEng(eV)     dDmax    Ef(eV) dHmax(eV)
   scf:    1    -4963.800052    -4965.061425    -4965.061426  0.009264 -4.830750  0.076430
   scf:    2    -4965.060660    -4965.061569    -4965.061569  0.002621 -4.786820  0.081889
   scf:    3    -4965.062265    -4965.062093    -4965.062094  0.001130 -4.806614  0.006313
   scf:    4    -4965.062111    -4965.062103    -4965.062104  0.000162 -4.804829  0.001342
   scf:    5    -4965.062104    -4965.062104    -4965.062104  0.000024 -4.804777  0.000652

SCF Convergence by DM+H criterion
max |DM_out - DM_in|         :     0.0000243382
max |H_out - H_in|      (eV) :     0.0006518010
SCF cycle converged after 5 iterations

Using DM_out to compute the final energy and forces
No. of atoms with KB's overlaping orbs in proc 0. Max # of overlaps:      53     271

siesta: E_KS(eV) =            -4965.0621

siesta: Atomic forces (eV/Ang):
----------------------------------------
   Tot   -0.000000   -0.000000   -0.001093
----------------------------------------
   Max    0.074616
   Res    0.025357    sqrt( Sum f_i^2 / 3N )
----------------------------------------
   Max    0.074616    constrained

Stress tensor Voigt[x,y,z,yz,xz,xy] (kbar):        0.01        0.01       -3.58        0.00       -0.00        0.00
(Free)E + p*V (eV/cell)    -4960.0377
Target enthalpy (eV/cell)    -4965.0621

cgvc: Finished line minimization    2.  Mean atomic displacement =    0.0388

                     ====================================
                        Begin CG opt. move =      6
                     ====================================

superc: Internal auxiliary supercell:     1 x     1 x     5  =       5
superc: Number of atoms, orbitals, and projectors:    160   2080   2560

outcell: Unit cell vectors (Ang):
       40.000000    0.000000    0.000000
        0.000000   40.000000    0.000000
        0.000000    0.000000    4.230000

outcell: Cell vector modules (Ang)   :   40.000000   40.000000    4.230000
outcell: Cell angles (23,13,12) (deg):     90.0000     90.0000     90.0000
outcell: Cell volume (Ang**3)        :   6768.0000
<dSpData1D:S at geom step 6
  <sparsity:sparsity for geom step 6
    nrows_g=416 nrows=48 sparsity=.2596 nnzs=44930, refcount: 7>
  <dData1D:(new from dSpData1D) n=44930, refcount: 1>
refcount: 1>
new_DM -- step:     7
Re-using DM from previous geometries...
Number of DMs in history: 1
 DM extrapolation coefficients: 
1   1.00000
New DM after history re-use:
<dSpData2D:SpM extrapolated using coords
  <sparsity:sparsity for geom step 6
    nrows_g=416 nrows=48 sparsity=.2596 nnzs=44930, refcount: 9>
  <dData2D:(temp array for extrapolation) n=44930 m=1, refcount: 1>
refcount: 1>
No. of atoms with KB's overlaping orbs in proc 0. Max # of overlaps:      53     271
New grid distribution:   1
           1       1:  180    1:   45    1:    5
           2       1:  180    1:   45    6:   10
           3       1:  180    1:   45   11:   14
           4       1:  180    1:   45   15:   18
           5       1:  180   46:   90    1:    5
           6       1:  180   46:   90    6:   10
           7       1:  180   46:   90   11:   14
           8       1:  180   46:   90   15:   18
           9       1:  180   91:  135    1:    5
          10       1:  180   91:  135    6:   10
          11       1:  180   91:  135   11:   14
          12       1:  180   91:  135   15:   18
          13       1:  180  136:  180    1:    5
          14       1:  180  136:  180    6:   10
          15       1:  180  136:  180   11:   14
          16       1:  180  136:  180   15:   18

InitMesh: MESH =   360 x   360 x    36 =     4665600
InitMesh: (bp) =   180 x   180 x    18 =      583200
InitMesh: Mesh cutoff (required, used) =   199.998   200.182 Ry
ExtMesh (bp) on 0 =   240 x   105 x    65 =     1638000
New grid distribution:   2
           1      24:  173    9:   23    1:   18
           2       8:   23   10:   23    1:   18
           3      11:   23    1:    9    1:   18
           4       1:   10    1:    9    1:   18
           5      24:  173   24:  172    1:   18
           6       1:    7   24:  172    1:   18
           7     174:  180    9:   23    1:   18
           8       1:   10  173:  180    1:   18
           9       8:   23   24:  172    1:   18
          10     174:  180   24:  172    1:   18
          11       1:    7   10:   23    1:   18
          12     171:  180    1:    8    1:   18
          13      24:  170    1:    8    1:   18
          14      24:  170  173:  180    1:   18
          15      11:   23  173:  180    1:   18
          16     171:  180  173:  180    1:   18
New grid distribution:   3
           1      38:  170   13:   59    1:   18
           2      11:   37   13:   59    1:   18
           3       1:   10   13:   59    1:   18
           4     167:  180    1:   12    1:   18
           5      38:  166    1:   12    1:   18
           6       1:   10   60:  168    1:   18
           7     171:  180   13:   59    1:   18
           8       1:   14    1:   12    1:   18
           9      68:  169   60:  168    1:   18
          10     170:  180   60:  168    1:   18
          11      15:   37    1:   12    1:   18
          12       1:   14  169:  180    1:   18
          13      11:   67   60:  168    1:   18
          14      68:  166  169:  180    1:   18
          15      15:   67  169:  180    1:   18
          16     167:  180  169:  180    1:   18
Setting up quadratic distribution...
ExtMesh (bp) on 0 =   210 x    75 x    78 =     1228500
PhiOnMesh: Number of (b)points on node 0 =                40500
PhiOnMesh: nlist on node 0 =               346593

        iscf     Eharris(eV)        E_KS(eV)     FreeEng(eV)     dDmax    Ef(eV) dHmax(eV)
   scf:    1    -4964.051789    -4964.432741    -4964.432741  0.029845 -4.785444  0.947396
   scf:    2    -4959.730603    -4963.159951    -4963.159951  0.028286 -4.799652  2.299242
   scf:    3    -4965.128814    -4964.691327    -4964.691328  0.020255 -4.792949  0.015218
   scf:    4    -4964.691943    -4964.691677    -4964.691678  0.000361 -4.793797  0.007360
   scf:    5    -4964.691758    -4964.691724    -4964.691724  0.000176 -4.794507  0.004173
   scf:    6    -4964.691735    -4964.691731    -4964.691731  0.000063 -4.794727  0.001517
   scf:    7    -4964.691730    -4964.691729    -4964.691729  0.000045 -4.794840  0.000459

SCF Convergence by DM+H criterion
max |DM_out - DM_in|         :     0.0000449844
max |H_out - H_in|      (eV) :     0.0004587958
SCF cycle converged after 7 iterations

Using DM_out to compute the final energy and forces
No. of atoms with KB's overlaping orbs in proc 0. Max # of overlaps:      53     271

siesta: E_KS(eV) =            -4964.6917

siesta: Atomic forces (eV/Ang):
----------------------------------------
   Tot    0.000144    0.000393    0.004285
----------------------------------------
   Max    2.027271
   Res    0.726668    sqrt( Sum f_i^2 / 3N )
----------------------------------------
   Max    2.027271    constrained

Stress tensor Voigt[x,y,z,yz,xz,xy] (kbar):        0.16        0.16       -3.43        0.00       -0.00        0.00
(Free)E + p*V (eV/cell)    -4960.3053
Target enthalpy (eV/cell)    -4964.6917

                     ====================================
                        Begin CG opt. move =      7
                     ====================================

superc: Internal auxiliary supercell:     1 x     1 x     5  =       5
superc: Number of atoms, orbitals, and projectors:    160   2080   2560

outcell: Unit cell vectors (Ang):
       40.000000    0.000000    0.000000
        0.000000   40.000000    0.000000
        0.000000    0.000000    4.230000

outcell: Cell vector modules (Ang)   :   40.000000   40.000000    4.230000
outcell: Cell angles (23,13,12) (deg):     90.0000     90.0000     90.0000
outcell: Cell volume (Ang**3)        :   6768.0000
<dSpData1D:S at geom step 7
  <sparsity:sparsity for geom step 7
    nrows_g=416 nrows=48 sparsity=.2615 nnzs=45258, refcount: 7>
  <dData1D:(new from dSpData1D) n=45258, refcount: 1>
refcount: 1>
new_DM -- step:     8
Re-using DM from previous geometries...
Number of DMs in history: 1
 DM extrapolation coefficients: 
1   1.00000
New DM after history re-use:
<dSpData2D:SpM extrapolated using coords
  <sparsity:sparsity for geom step 7
    nrows_g=416 nrows=48 sparsity=.2615 nnzs=45258, refcount: 9>
  <dData2D:(temp array for extrapolation) n=45258 m=1, refcount: 1>
refcount: 1>
No. of atoms with KB's overlaping orbs in proc 0. Max # of overlaps:      53     271
New grid distribution:   1
           1       1:  180    1:   45    1:    5
           2       1:  180    1:   45    6:   10
           3       1:  180    1:   45   11:   14
           4       1:  180    1:   45   15:   18
           5       1:  180   46:   90    1:    5
           6       1:  180   46:   90    6:   10
           7       1:  180   46:   90   11:   14
           8       1:  180   46:   90   15:   18
           9       1:  180   91:  135    1:    5
          10       1:  180   91:  135    6:   10
          11       1:  180   91:  135   11:   14
          12       1:  180   91:  135   15:   18
          13       1:  180  136:  180    1:    5
          14       1:  180  136:  180    6:   10
          15       1:  180  136:  180   11:   14
          16       1:  180  136:  180   15:   18

InitMesh: MESH =   360 x   360 x    36 =     4665600
InitMesh: (bp) =   180 x   180 x    18 =      583200
InitMesh: Mesh cutoff (required, used) =   199.998   200.182 Ry
ExtMesh (bp) on 0 =   240 x   105 x    65 =     1638000
New grid distribution:   2
           1      24:  173    9:   23    1:   18
           2       8:   23   10:   23    1:   18
           3      11:   23    1:    9    1:   18
           4       1:   10    1:    9    1:   18
           5      24:  173   24:  172    1:   18
           6       1:    7   24:  172    1:   18
           7     174:  180    9:   23    1:   18
           8       1:   10  173:  180    1:   18
           9       8:   23   24:  172    1:   18
          10     174:  180   24:  172    1:   18
          11       1:    7   10:   23    1:   18
          12     171:  180    1:    8    1:   18
          13      24:  170    1:    8    1:   18
          14      24:  170  173:  180    1:   18
          15      11:   23  173:  180    1:   18
          16     171:  180  173:  180    1:   18
New grid distribution:   3
           1      37:  170   13:   58    1:   18
           2      11:   36   13:   58    1:   18
           3       1:   10   13:   58    1:   18
           4     167:  180    1:   12    1:   18
           5      37:  166    1:   12    1:   18
           6       1:   10   59:  168    1:   18
           7     171:  180   13:   58    1:   18
           8       1:   14    1:   12    1:   18
           9      68:  169   59:  168    1:   18
          10     170:  180   59:  168    1:   18
          11      15:   36    1:   12    1:   18
          12       1:   14  169:  180    1:   18
          13      11:   67   59:  168    1:   18
          14      68:  166  169:  180    1:   18
          15      15:   67  169:  180    1:   18
          16     167:  180  169:  180    1:   18
Setting up quadratic distribution...
ExtMesh (bp) on 0 =   210 x    75 x    78 =     1228500
PhiOnMesh: Number of (b)points on node 0 =                40500
PhiOnMesh: nlist on node 0 =               346696

        iscf     Eharris(eV)        E_KS(eV)     FreeEng(eV)     dDmax    Ef(eV) dHmax(eV)
   scf:    1    -4964.103655    -4964.824684    -4964.824685  0.028873 -4.814787  0.910054
   scf:    2    -4960.425073    -4963.629697    -4963.629697  0.027122 -4.793179  2.231666
   scf:    3    -4965.468366    -4965.062229    -4965.062229  0.019010 -4.806449  0.016634
   scf:    4    -4965.062824    -4965.062571    -4965.062572  0.000346 -4.805028  0.006373
   scf:    5    -4965.062630    -4965.062604    -4965.062604  0.000136 -4.804902  0.003659
   scf:    6    -4965.062616    -4965.062611    -4965.062611  0.000067 -4.804839  0.001325
   scf:    7    -4965.062615    -4965.062613    -4965.062613  0.000055 -4.804823  0.000462

SCF Convergence by DM+H criterion
max |DM_out - DM_in|         :     0.0000545209
max |H_out - H_in|      (eV) :     0.0004621142
SCF cycle converged after 7 iterations

Using DM_out to compute the final energy and forces
No. of atoms with KB's overlaping orbs in proc 0. Max # of overlaps:      53     271

siesta: E_KS(eV) =            -4965.0626

siesta: Atomic forces (eV/Ang):
----------------------------------------
   Tot    0.000001    0.000003    0.000364
----------------------------------------
   Max    0.016386
   Res    0.007399    sqrt( Sum f_i^2 / 3N )
----------------------------------------
   Max    0.016386    constrained

Stress tensor Voigt[x,y,z,yz,xz,xy] (kbar):        0.02        0.02       -3.57       -0.00        0.00       -0.00
(Free)E + p*V (eV/cell)    -4960.0869
Target enthalpy (eV/cell)    -4965.0626

outcoor: Relaxed atomic coordinates (Ang):                  
   -2.02348720    2.46563191   -1.41079764   1       1  C
   -0.92596054    3.05250390   -0.70437319   1       2  C
   -2.81305143    1.50396998   -0.70454646   1       3  C
   -2.81312630    1.50392455    0.70444298   1       4  C
   -2.02353983    2.46565881    1.41087738   1       5  C
   -0.92595516    3.05252590    0.70438936   1       6  C
   -2.46563215   -2.02348620   -1.41079771   1       7  C
   -3.05250336   -0.92595967   -0.70437310   1       8  C
   -3.17457595    0.31274264   -1.41070734   1       9  C
   -3.17450805    0.31265066    1.41054128   1      10  C
   -1.50397085   -2.81305088   -0.70454647   1      11  C
   -1.50392542   -2.81312577    0.70444296   1      12  C
   -2.46565905   -2.02353884    1.41087742   1      13  C
   -3.05252537   -0.92595427    0.70438928   1      14  C
    2.02348644   -2.46563315   -1.41079757   1      15  C
    0.92595913   -3.05250424   -0.70437318   1      16  C
   -0.31274364   -3.17457620   -1.41070731   1      17  C
   -0.31265166   -3.17450830    1.41054123   1      18  C
    2.81305175   -1.50397139   -0.70454660   1      19  C
    2.81312663   -1.50392597    0.70444310   1      20  C
    2.02353907   -2.46566005    1.41087731   1      21  C
    0.92595373   -3.05252624    0.70438937   1      22  C
    2.46563291    2.02348743   -1.41079753   1      23  C
    3.05250478    0.92596002   -0.70437328   1      24  C
    3.17457721   -0.31274338   -1.41070717   1      25  C
    3.17450930   -0.31265142    1.41054109   1      26  C
    1.50397053    2.81305230   -0.70454661   1      27  C
    1.50392510    2.81312717    0.70444310   1      28  C
    2.46565980    2.02354006    1.41087726   1      29  C
    3.05252678    0.92595463    0.70438945   1      30  C
    0.31274239    3.17457697   -1.41070722   1      31  C
    0.31265043    3.17450907    1.41054114   1      32  C

coxmol: Writing XMOL coordinates into file siesta.xyz                                                          
Writing WFSX for COOP/COHP in siesta.fullBZ.WFSX
Computing bands...

siesta: Band energies (eV):
  ik is       eps
   1  1  -24.2030  -23.8935  -23.8935  -22.9913  -22.9893  -21.5641  -21.5641  -19.7217  -19.7198  -18.8306
         -18.5571  -18.5571  -18.0315  -17.7812  -17.7812  -17.7621  -17.7597  -17.7185  -17.7185  -17.1728
  -17.1699  -16.5028  -16.5028  -15.0766  -15.0766  -14.8567  -14.8543  -14.4851  -14.4843  -13.6787
  -13.6777  -12.8993  -12.8993  -12.5344  -12.4615  -12.4615  -12.1551  -12.1551  -11.9522  -11.9522
  -11.4327  -11.2596  -11.2583  -10.7693  -10.7684   -9.6012   -9.5992   -9.0408   -9.0408   -8.7865
   -8.7865   -8.3955   -8.3955   -7.8599   -7.8424   -7.0827   -7.0805   -6.9378   -6.5564   -6.5564
   -5.4707   -5.4696   -5.1373   -5.1373   -4.4987   -4.1325   -4.1325   -4.0322   -4.0311   -3.7494
   -3.7494   -1.5242   -1.5212    0.8906    0.8906    1.8098    2.3047    2.5619    2.6529    2.6529
    2.7875    2.7909    2.9014    3.0328    3.0328    3.4026    3.4026    3.6544    3.6544    3.9782
    3.9802    5.2096    5.2109    5.4402    5.4402    5.8220    5.8220    5.8819    5.8992    5.9022
    6.2076    6.2076    6.6245    6.6245    6.6262    6.6301    6.6615    6.6629    6.7688    7.2409
    7.2445    7.3545    7.3545    7.9565    7.9565    8.2060    8.2061    8.7742    8.7742    8.8173
    8.8242    9.2531    9.2531    9.5291    9.5431    9.5431    9.6056    9.6061    9.9979    9.9979
   10.0668   10.0693   10.4431   10.7112   10.7126   10.9753   10.9753   11.0740   11.0740   11.1075
   11.1174   11.1209   11.1710   11.1710   11.2812   12.2320   12.2320   12.3014   12.3047   12.4466
   12.4466   12.6392   12.7942   12.7952   13.0490   13.0490   13.0648   13.1533   13.1533   13.8671
   13.8671   14.5210   14.5243   14.6597   14.6602   14.8641   14.8641   14.9243   15.0708   15.0708
   15.2153   15.2153   15.3775   15.3793   15.7787   15.7825   16.2071   16.5191   16.5234   16.9000
   16.9000   17.2788   17.2788   17.6488   17.7671   17.7686   18.1308   18.1325   18.7293   18.7293
   18.9407   18.9407   19.1856   19.3985   19.3985   19.6546   19.6597   19.8536   19.8536   22.2915
   23.5567   23.5589   23.8563   23.8563   24.2891   24.2891   24.6467   24.6496   25.0810   25.0827
   25.1204   25.1204   25.1639   25.1639   28.0305   28.0305   28.2591   28.2642   29.4354   30.5159
   30.6841   31.0979   31.1418   31.1447   32.0671   32.0717   32.8801   32.8801   33.2793   33.2793
   33.3699   33.3699   34.1477   34.1477   34.1818   34.1818   34.2751   34.2797   35.1377   35.1426
   35.2364   37.5327   37.8528   37.8528   38.1282   38.1282   38.4754   38.4817   39.0787   39.0787
   39.4139   39.4163   40.5067   40.5067   40.8141   40.8197   40.8604   40.8604   40.9704   40.9748
   43.3656   43.3713   43.4727   43.9939   43.9939   45.1599   45.1599   46.1931   46.1931   46.2369
   46.2369   46.2776   46.2776   46.5565   46.9885   46.9897   47.2893   47.2959   47.4217   47.5237
   47.9030   48.2630   48.2641   48.3027   48.3043   48.8288   48.8288   48.9947   48.9996   49.0931
   49.0931   49.3774   49.4579   49.4579   50.7622   52.1631   52.1723   52.5365   52.5365   53.6815
   53.6815   53.9569   53.9569   55.3886   55.3902   57.1553   57.1663   57.8179   57.8179   58.4473
   58.4473   58.7604   58.7671   58.8999   60.3204   60.3204   61.0767   61.0767   61.3477   61.3477
   61.6376   61.6431   61.7724   61.7791   62.5220   62.5220   63.3228   64.0399   64.0451   64.5628
   65.6045   65.6197   65.6198   66.1122   66.4045   66.4045   67.2458   67.2458   68.0354   69.0026
   69.0080   69.7551   71.3312   71.3509   72.0188   72.0188   72.5893   72.5893   73.0669   73.0669
   73.0924   74.4659   74.4835   75.5278   75.5348   75.8433   75.8433   76.4886   76.4953   77.3303
   77.3303   77.7144   77.7144   81.9737   81.9737   83.9803   83.9842   94.3007   95.4255   95.4255
   96.7949   96.7949   99.0039   99.0086  101.2449  101.2450  102.8158  104.3754  104.3802  104.6249
  104.6408  108.7556  108.7556  113.1166  113.1344  113.7247  113.9042  113.9137  115.3884  115.3885
  119.6348  119.6349  129.6955  129.8359  129.8427  133.5742  133.5742  136.3051  136.3051  136.4475
  136.4479  136.4811  136.4812  138.5601  138.5826  139.1472  139.7976  139.8044  142.3733  142.3971
  146.0840  146.0842  146.1228  146.1242  149.6200  149.6200
   2  1  -24.2029  -23.8933  -23.8933  -22.9911  -22.9891  -21.5639  -21.5639  -19.7215  -19.7196  -18.8343
         -18.5608  -18.5608  -18.0276  -17.7773  -17.7773  -17.7662  -17.7638  -17.7186  -17.7186  -17.1687
  -17.1658  -16.5041  -16.5041  -15.0749  -15.0749  -14.8585  -14.8560  -14.4848  -14.4840  -13.6770
  -13.6759  -12.9008  -12.9008  -12.5342  -12.4614  -12.4614  -12.1549  -12.1549  -11.9508  -11.9508
  -11.4326  -11.2599  -11.2586  -10.7696  -10.7687   -9.6009   -9.5989   -9.0406   -9.0406   -8.7872
   -8.7872   -8.3955   -8.3955   -7.8604   -7.8427   -7.0826   -7.0804   -6.9391   -6.5577   -6.5577
   -5.4725   -5.4713   -5.1380   -5.1380   -4.4974   -4.1312   -4.1312   -4.0305   -4.0294   -3.7489
   -3.7489   -1.5246   -1.5215    0.8902    0.8902    1.8093    2.3051    2.5621    2.6524    2.6524
    2.7871    2.7905    2.9021    3.0331    3.0331    3.4030    3.4030    3.6546    3.6546    3.9774
    3.9795    5.2096    5.2109    5.4384    5.4384    5.8226    5.8226    5.8823    5.8996    5.9026
    6.2077    6.2077    6.6249    6.6250    6.6276    6.6315    6.6616    6.6630    6.7690    7.2385
    7.2420    7.3547    7.3547    7.9587    7.9587    8.2061    8.2063    8.7723    8.7723    8.8194
    8.8263    9.2531    9.2531    9.5266    9.5433    9.5433    9.6058    9.6063    9.9968    9.9968
   10.0658   10.0683   10.4450   10.7102   10.7116   10.9751   10.9751   11.0739   11.0739   11.1076
   11.1173   11.1208   11.1707   11.1707   11.2808   12.2331   12.2332   12.3020   12.3053   12.4469
   12.4469   12.6309   12.7941   12.7951   13.0462   13.0462   13.0735   13.1530   13.1530   13.8703
   13.8704   14.5195   14.5228   14.6608   14.6613   14.8651   14.8652   14.9234   15.0707   15.0707
   15.2146   15.2146   15.3795   15.3813   15.7782   15.7820   16.2072   16.5189   16.5232   16.9009
   16.9009   17.2782   17.2782   17.6493   17.7673   17.7687   18.1318   18.1335   18.7289   18.7289
   18.9410   18.9410   19.1856   19.3984   19.3984   19.6544   19.6595   19.8529   19.8529   22.2868
   23.5577   23.5599   23.8554   23.8554   24.2895   24.2895   24.6470   24.6499   25.0814   25.0830
   25.1233   25.1233   25.1652   25.1652   28.0311   28.0311   28.2596   28.2647   29.4301   30.5157
   30.6838   31.1045   31.1401   31.1430   32.0678   32.0724   32.8804   32.8804   33.2782   33.2782
   33.3711   33.3711   34.1468   34.1468   34.1797   34.1797   34.2755   34.2801   35.1364   35.1414
   35.2370   37.5334   37.8528   37.8528   38.1285   38.1285   38.4717   38.4780   39.0747   39.0747
   39.4142   39.4167   40.5066   40.5066   40.8134   40.8189   40.8640   40.8640   40.9732   40.9775
   43.3634   43.3691   43.4736   43.9852   43.9853   45.1660   45.1660   46.1849   46.1850   46.2371
   46.2372   46.2868   46.2869   46.5620   46.9838   46.9848   47.2972   47.3036   47.4210   47.5237
   47.9016   48.2644   48.2655   48.3049   48.3065   48.8273   48.8273   48.9939   48.9988   49.0827
   49.0827   49.3788   49.4688   49.4688   50.7633   52.1613   52.1706   52.5319   52.5320   53.6851
   53.6851   53.9546   53.9546   55.3842   55.3857   57.1555   57.1665   57.8172   57.8172   58.4456
   58.4456   58.7593   58.7660   58.8964   60.3006   60.3006   61.0945   61.0945   61.3353   61.3353
   61.6378   61.6434   61.7747   61.7813   62.5224   62.5225   63.3286   64.0386   64.0438   64.5664
   65.6045   65.6209   65.6209   66.1095   66.3984   66.3984   67.2557   67.2557   68.0369   68.9994
   69.0047   69.7537   71.3280   71.3477   72.0080   72.0081   72.5964   72.5964   73.0655   73.0655
   73.0922   74.4605   74.4781   75.5273   75.5344   75.8430   75.8430   76.4894   76.4961   77.3307
   77.3307   77.7232   77.7232   81.9754   81.9754   83.9791   83.9829   94.2992   95.4254   95.4254
   96.7929   96.7929   98.9992   99.0039  101.2389  101.2390  102.8071  104.3722  104.3770  104.6226
  104.6385  108.7546  108.7546  113.1198  113.1375  113.7313  113.8952  113.9047  115.3848  115.3849
  119.6417  119.6418  129.6278  129.8421  129.8489  133.5214  133.5215  136.2973  136.2973  136.4447
  136.4451  136.4830  136.4831  138.5602  138.5826  139.1440  139.7940  139.8008  142.3410  142.3648
  146.0771  146.0773  146.1113  146.1127  149.6036  149.6036
   3  1  -24.2024  -23.8929  -23.8929  -22.9907  -22.9887  -21.5635  -21.5635  -19.7211  -19.7192  -18.8452
         -18.5717  -18.5717  -18.0161  -17.7781  -17.7758  -17.7659  -17.7659  -17.7190  -17.7190  -17.1566
  -17.1537  -16.5079  -16.5079  -15.0700  -15.0700  -14.8636  -14.8612  -14.4840  -14.4831  -13.6717
  -13.6707  -12.9054  -12.9054  -12.5337  -12.4609  -12.4609  -12.1545  -12.1545  -11.9467  -11.9467
  -11.4321  -11.2609  -11.2595  -10.7704  -10.7695   -9.5999   -9.5979   -9.0401   -9.0401   -8.7895
   -8.7895   -8.3954   -8.3954   -7.8621   -7.8438   -7.0824   -7.0802   -6.9429   -6.5615   -6.5615
   -5.4776   -5.4765   -5.1400   -5.1400   -4.4936   -4.1273   -4.1273   -4.0253   -4.0242   -3.7472
   -3.7472   -1.5255   -1.5225    0.8890    0.8890    1.8080    2.3063    2.5629    2.6508    2.6508
    2.7858    2.7892    2.9042    3.0341    3.0341    3.4041    3.4041    3.6553    3.6553    3.9753
    3.9774    5.2096    5.2109    5.4333    5.4333    5.8245    5.8245    5.8834    5.9008    5.9038
    6.2080    6.2080    6.6262    6.6262    6.6319    6.6358    6.6617    6.6632    6.7695    7.2312
    7.2347    7.3551    7.3551    7.9650    7.9650    8.2066    8.2067    8.7666    8.7666    8.8256
    8.8325    9.2531    9.2531    9.5193    9.5439    9.5439    9.6063    9.6068    9.9935    9.9935
   10.0629   10.0654   10.4508   10.7073   10.7086   10.9745   10.9745   11.0736   11.0736   11.1080
   11.1172   11.1207   11.1699   11.1699   11.2796   12.2366   12.2366   12.3036   12.3069   12.4477
   12.4477   12.6076   12.7938   12.7948   13.0380   13.0380   13.0978   13.1523   13.1523   13.8798
   13.8799   14.5153   14.5186   14.6640   14.6645   14.8684   14.8684   14.9205   15.0704   15.0704
   15.2125   15.2125   15.3856   15.3874   15.7768   15.7806   16.2075   16.5184   16.5227   16.9035
   16.9035   17.2766   17.2766   17.6508   17.7678   17.7693   18.1348   18.1365   18.7277   18.7277
   18.9418   18.9418   19.1855   19.3981   19.3981   19.6537   19.6588   19.8509   19.8509   22.2728
   23.5606   23.5628   23.8526   23.8527   24.2904   24.2904   24.6479   24.6507   25.0826   25.0842
   25.1318   25.1318   25.1689   25.1689   28.0329   28.0330   28.2611   28.2663   29.4141   30.5151
   30.6829   31.1243   31.1350   31.1379   32.0700   32.0746   32.8810   32.8810   33.2751   33.2751
   33.3746   33.3746   34.1441   34.1442   34.1733   34.1734   34.2767   34.2813   35.1327   35.1377
   35.2389   37.5356   37.8528   37.8528   38.1295   38.1295   38.4608   38.4671   39.0626   39.0626
   39.4153   39.4178   40.5062   40.5062   40.8111   40.8166   40.8749   40.8749   40.9815   40.9859
   43.3568   43.3625   43.4763   43.9597   43.9598   45.1838   45.1838   46.1667   46.1668   46.2377
   46.2378   46.3083   46.3084   46.5786   46.9708   46.9716   47.3193   47.3254   47.4187   47.5236
   47.8974   48.2687   48.2698   48.3115   48.3131   48.8227   48.8228   48.9914   48.9964   49.0547
   49.0547   49.3831   49.4985   49.4986   50.7665   52.1560   52.1652   52.5181   52.5183   53.6956
   53.6957   53.9475   53.9475   55.3709   55.3724   57.1559   57.1668   57.8151   57.8151   58.4404
   58.4404   58.7561   58.7627   58.8857   60.2458   60.2458   61.1433   61.1433   61.2985   61.2986
   61.6387   61.6442   61.7814   61.7879   62.5239   62.5239   63.3459   64.0347   64.0399   64.5770
   65.6046   65.6243   65.6243   66.1017   66.3810   66.3810   67.2842   67.2842   68.0412   68.9898
   68.9951   69.7495   71.3186   71.3383   71.9772   71.9774   72.6160   72.6162   73.0613   73.0613
   73.0917   74.4444   74.4620   75.5259   75.5329   75.8422   75.8423   76.4918   76.4986   77.3318
   77.3318   77.7493   77.7493   81.9805   81.9805   83.9753   83.9791   94.2946   95.4250   95.4250
   96.7869   96.7870   98.9850   98.9896  101.2209  101.2210  102.7807  104.3627  104.3674  104.6157
  104.6315  108.7516  108.7517  113.1290  113.1468  113.7510  113.8682  113.8776  115.3740  115.3741
  119.6622  119.6623  129.4253  129.8606  129.8675  133.3637  133.3638  136.2740  136.2741  136.4362
  136.4366  136.4887  136.4887  138.5603  138.5827  139.1343  139.7831  139.7899  142.2446  142.2683
  146.0564  146.0565  146.0770  146.0784  149.5545  149.5545
   4  1  -24.2017  -23.8921  -23.8921  -22.9899  -22.9879  -21.5627  -21.5627  -19.7204  -19.7185  -18.8627
         -18.5891  -18.5891  -17.9975  -17.7971  -17.7947  -17.7475  -17.7475  -17.7196  -17.7196  -17.1375
  -17.1347  -16.5141  -16.5141  -15.0618  -15.0618  -14.8721  -14.8696  -14.4825  -14.4817  -13.6632
  -13.6621  -12.9131  -12.9130  -12.5329  -12.4601  -12.4601  -12.1537  -12.1537  -11.9399  -11.9399
  -11.4313  -11.2625  -11.2611  -10.7716  -10.7708   -9.5983   -9.5963   -9.0393   -9.0393   -8.7933
   -8.7932   -8.3953   -8.3952   -7.8648   -7.8456   -7.0819   -7.0798   -6.9492   -6.5678   -6.5678
   -5.4861   -5.4850   -5.1434   -5.1434   -4.4871   -4.1207   -4.1207   -4.0168   -4.0157   -3.7445
   -3.7445   -1.5271   -1.5240    0.8870    0.8870    1.8059    2.3083    2.5642    2.6481    2.6482
[...]
   69.0570   69.0577   70.1284   70.7315   71.3056   71.3057   71.7215   71.7216   71.9969   71.9974
   72.9521   72.9579   73.0335   73.0341   73.0752   73.0840   75.5094   75.5125   78.1298   78.1312
   81.4695   81.4746   81.8725   81.9166   81.9169   83.3701   84.3186   84.3189   95.6662   95.6674
   96.1602   96.1683   96.1829   96.1841   98.2843   98.2924   99.2154   99.2172  101.1287  101.1292
  108.1029  108.1031  108.2375  108.2382  110.0750  110.0757  115.3077  119.7916  127.6852  127.6948
  137.2888  140.4925  141.4886  141.4995  142.1902  142.1940  142.5664  142.5685  142.9092  142.9101
  142.9842  142.9853  143.2359  143.2368  144.2068  144.2081
  97  1  -22.8301  -22.6190  -22.5263  -22.5263  -22.3162  -22.3162  -21.6426  -21.6405  -21.4360  -21.4339
         -20.2519  -20.2519  -20.0536  -20.0536  -18.7522  -18.7500  -17.7207  -17.7189  -16.0877  -16.0876
  -15.8960  -15.8959  -13.8617  -13.8610  -13.6521  -13.6514  -12.6236  -12.6235  -12.5781  -12.2930
  -12.2929  -12.2175  -11.5409  -11.5391  -11.2886  -11.2884  -11.2341  -11.2323  -11.0956  -11.0954
  -11.0794  -11.0779  -10.9427  -10.9425  -10.7144  -10.7143  -10.4748  -10.3344  -10.1447  -10.1447
  -10.0953   -9.9717   -9.9717   -9.9055   -9.1805   -9.1788   -8.9758   -8.9742   -7.7471   -7.7470
   -7.5597   -7.5596   -6.6894   -6.6877   -2.6911   -2.6889   -1.6630   -1.6629   -1.4387   -1.4386
   -0.8397   -0.5692   -0.2450   -0.2450   -0.2039   -0.2017    0.0536    0.0536    0.0977    0.1001
    3.1891    3.1926    3.5217    3.5218    3.7376    3.7377    4.3199    4.5250    4.6338    4.6362
    5.0099    5.0122    5.2779    5.2779    5.4966    5.4967    5.7991    6.0083    6.1496    6.1498
    6.1898    6.1899    6.8983    6.8993    6.9133    6.9137    7.1542    7.1552    7.1812    7.1814
    7.8603    7.8857    7.8857    8.0851    8.0851    8.2403    8.2435    8.3791    8.3900    8.3931
    8.4512    8.5715    8.5951    8.5952    8.7189    8.7199    8.7450    8.7450    8.9236    8.9247
    9.5128    9.5128    9.7887    9.7887    9.8246    9.8255    9.9433    9.9440   10.2754   10.4488
   11.2749   11.2749   11.2997   11.2999   11.3650   11.3651   11.4080   11.4081   12.1175   12.1179
   12.1478   12.1482   13.4959   13.4986   13.6127   13.6128   13.6584   13.6585   13.6671   14.0191
   14.5517   14.5518   14.5815   14.5816   14.6072   14.6080   14.9383   14.9391   15.0092   15.0114
   15.5803   15.5803   15.9268   15.9269   16.9184   16.9229   17.5403   17.7671   19.7893   19.7899
   19.8890   19.8890   20.0223   20.0246   20.0733   20.0734   20.1789   20.1789   20.2987   20.2988
   20.5348   20.5369   21.0813   21.5673   21.9026   21.9026   22.0421   22.6163   22.6163   22.7393
   22.7415   22.7876   22.7877   22.9421   23.2931   23.2950   23.5249   23.5250   23.9978   23.9979
   24.3306   24.3307   25.5377   25.5380   27.4192   27.4284   28.3961   28.4826   29.3320   29.3339
   29.4160   29.4162   29.5131   29.5133   29.9625   29.9627   30.0332   30.0342   30.1963   30.1964
   30.6498   30.6533   31.2238   31.2239   31.3596   31.3597   31.4893   31.4961   31.5813   31.5875
   35.9640   35.9644   36.5719   36.5748   36.6877   36.6916   36.7004   36.7009   36.7277   36.8395
   38.4971   38.4971   38.5151   38.5164   38.6318   38.6318   38.9987   39.0030   42.8442   42.8447
   43.1328   43.1333   43.5472   43.7920   43.7942   43.9185   43.9210   43.9837   43.9839   44.0416
   44.6005   44.6006   45.3105   45.3106   45.4066   45.4067   45.8392   45.8609   45.8612   45.9268
   45.9272   46.1012   47.2553   47.2554   47.2899   47.2937   47.6284   47.6286   48.1613   48.1617
   48.2745   48.2752   48.7997   48.8022   49.7467   50.1355   51.4832   51.4834   52.0436   52.0492
   52.1447   52.1450   52.9613   52.9679   54.6057   54.6058   55.5167   55.5198   55.7513   55.7515
   56.0316   56.0341   56.5477   57.7245   57.7632   58.3882   58.3883   58.8997   58.9027   59.1003
   59.1004   59.2967   61.3018   61.3019   62.1079   62.1081   62.1438   62.1470   63.1045   63.1050
   63.2588   63.2594   63.4970   63.5033   64.0535   64.0588   66.0625   66.0656   66.1023   66.1113
   66.4268   66.4342   66.5356   66.5358   66.7896   66.7899   67.0977   67.0982   68.1870   68.5052
   68.7108   68.7114   70.1959   70.6682   71.3569   71.3570   71.6830   71.6831   72.0636   72.0641
   72.8479   72.8485   73.0627   73.0714   73.4025   73.4083   75.4579   75.4615   78.1615   78.1628
   80.7657   80.7699   82.0298   82.2068   82.2071   83.2029   84.0817   84.0821   95.7378   95.7389
   96.1419   96.1430   96.3435   96.3516   97.9925   98.0006   99.2075   99.2092  101.8739  101.8744
  107.3477  107.3481  108.4067  108.4075  109.8456  109.8463  115.8539  119.3584  127.6859  127.6955
  137.7473  140.2563  141.4980  141.5089  142.2495  142.2530  142.5428  142.5452  143.0235  143.0243
  143.0989  143.1001  143.2204  143.2212  144.1149  144.1161
  98  1  -22.8016  -22.6493  -22.4979  -22.4979  -22.3463  -22.3463  -21.6147  -21.6126  -21.4656  -21.4635
         -20.2251  -20.2251  -20.0819  -20.0819  -18.7483  -18.7461  -17.7262  -17.7244  -16.0618  -16.0617
  -15.9234  -15.9233  -13.8328  -13.8321  -13.6816  -13.6809  -12.5752  -12.5751  -12.5243  -12.3364
  -12.3363  -12.2633  -11.4966  -11.4948  -11.2750  -11.2733  -11.2594  -11.2592  -11.1200  -11.1199
  -11.0766  -11.0752  -10.9111  -10.9109  -10.7459  -10.7458  -10.4601  -10.3581  -10.1242  -10.1242
  -10.0694   -9.9988   -9.9988   -9.9324   -9.1536   -9.1519   -9.0058   -9.0041   -7.7217   -7.7216
   -7.5864   -7.5863   -6.6887   -6.6870   -2.6929   -2.6907   -1.6322   -1.6320   -1.4703   -1.4701
   -0.8016   -0.6065   -0.2030   -0.2030   -0.1617   -0.1595    0.0125    0.0125    0.0560    0.0583
    3.1850    3.1885    3.5482    3.5483    3.7041    3.7041    4.3512    4.5004    4.6839    4.6863
    4.9554    4.9577    5.3127    5.3127    5.4725    5.4725    5.8254    5.9776    6.1650    6.1652
    6.1896    6.1897    6.9333    6.9343    6.9363    6.9367    7.1181    7.1191    7.1321    7.1323
    7.9135    7.9136    7.9423    8.0576    8.0576    8.2623    8.2654    8.3688    8.3705    8.3736
    8.4052    8.5439    8.6159    8.6160    8.7241    8.7241    8.7476    8.7486    8.8958    8.8969
    9.5515    9.5515    9.7508    9.7508    9.8433    9.8442    9.9291    9.9299   10.2976   10.4230
   11.2909   11.2909   11.3147   11.3149   11.3562   11.3562   11.3930   11.3930   12.1214   12.1218
   12.1430   12.1434   13.4979   13.5006   13.6122   13.6123   13.6453   13.6454   13.7133   13.9674
   14.5578   14.5579   14.5795   14.5795   14.6500   14.6509   14.8896   14.8903   15.0078   15.0100
   15.6293   15.6293   15.8795   15.8796   16.9251   16.9297   17.5714   17.7353   19.7974   19.7979
   19.9344   19.9344   20.0988   20.1011   20.1128   20.1128   20.1435   20.1436   20.2762   20.2762
   20.4695   20.4717   21.1529   21.5032   21.9966   21.9966   22.1632   22.5118   22.5118   22.8137
   22.8138   22.8160   22.8877   22.8877   23.2135   23.2155   23.4201   23.4201   24.0443   24.0444
   24.2851   24.2852   25.5372   25.5376   27.4255   27.4348   28.3969   28.4584   29.4284   29.4302
   29.4397   29.4399   29.5135   29.5137   29.9357   29.9368   29.9881   29.9883   30.1560   30.1561
   30.6246   30.6282   31.2204   31.2205   31.3213   31.3214   31.5030   31.5096   31.5667   31.5733
   36.0580   36.0585   36.5800   36.5830   36.5900   36.5904   36.6643   36.6681   36.7434   36.8241
   38.5141   38.5141   38.5823   38.5837   38.6113   38.6113   38.9338   38.9380   42.8723   42.8728
   43.0817   43.0821   43.6191   43.8060   43.8082   43.8976   43.9000   43.9760   44.0720   44.0722
   44.5181   44.5183   45.3271   45.3272   45.3970   45.3971   45.8700   45.8704   45.8719   45.9188
   45.9193   46.0611   47.2935   47.2973   47.3041   47.3042   47.5754   47.5756   48.1833   48.1837
   48.2666   48.2671   48.7729   48.7753   49.8100   50.0903   51.5933   51.5936   52.0706   52.0708
   52.1526   52.1584   52.8181   52.8246   54.7780   54.7781   55.6119   55.6121   55.6156   55.6187
   55.9867   55.9893   56.7173   57.5946   57.9211   58.4994   58.4995   58.9186   58.9215   59.0201
   59.0202   59.0591   61.4168   61.4170   62.0069   62.0071   62.1190   62.1222   63.0937   63.0943
   63.2094   63.2100   63.6072   63.6133   63.9997   64.0052   65.9846   65.9877   66.1575   66.1664
   66.3934   66.4011   66.5631   66.5634   66.7455   66.7458   67.2252   67.2258   68.2182   68.3888
   68.3893   68.4453   70.2630   70.6042   71.4068   71.4069   71.6427   71.6428   72.1374   72.1379
   72.6898   72.6904   73.0532   73.0620   73.8499   73.8557   75.3654   75.3694   78.2463   78.2475
   80.1192   80.1223   82.1890   82.4891   82.4894   83.0364   83.8398   83.8401   95.8057   95.8068
   96.0972   96.0983   96.5360   96.5441   97.7192   97.7273   99.2015   99.2032  102.6273  102.6278
  106.5874  106.5878  108.5839  108.5847  109.6230  109.6237  116.3853  118.9126  127.6864  127.6960
  138.1799  139.9921  141.5051  141.5160  142.3041  142.3072  142.5152  142.5179  143.0598  143.0607
  143.2011  143.2021  143.2775  143.2788  144.0106  144.0119
  99  1  -22.7728  -22.6792  -22.4693  -22.4693  -22.3761  -22.3761  -21.5865  -21.5844  -21.4949  -21.4928
         -20.1980  -20.1980  -20.1100  -20.1100  -18.7456  -18.7434  -17.7299  -17.7281  -16.0357  -16.0356
  -15.9506  -15.9505  -13.8039  -13.8032  -13.7110  -13.7103  -12.5275  -12.5274  -12.4714  -12.3807
  -12.3806  -12.3109  -11.4528  -11.4510  -11.3166  -11.3148  -11.2309  -11.2308  -11.1453  -11.1451
  -11.0747  -11.0733  -10.8793  -10.8792  -10.7777  -10.7775  -10.4436  -10.3807  -10.1024  -10.1024
  -10.0433  -10.0251  -10.0251   -9.9592   -9.1261   -9.1244   -9.0353   -9.0336   -7.6960   -7.6960
   -7.6129   -7.6128   -6.6882   -6.6865   -2.6941   -2.6918   -1.6012   -1.6010   -1.5017   -1.5016
   -0.7637   -0.6438   -0.1611   -0.1611   -0.1196   -0.1174   -0.0288   -0.0288    0.0141    0.0165
    3.1822    3.1857    3.5758    3.5759    3.6717    3.6717    4.3819    4.4740    4.7348    4.7371
    4.9016    4.9040    5.3466    5.3466    5.4456    5.4456    5.8530    5.9471    6.1760    6.1762
    6.1893    6.1894    6.9646    6.9649    6.9685    6.9696    7.0821    7.0831    7.0860    7.0862
    7.9414    7.9414    8.0244    8.0299    8.0300    8.2840    8.2865    8.2871    8.3505    8.3536
    8.4314    8.5166    8.6367    8.6368    8.7032    8.7032    8.7760    8.7770    8.8680    8.8690
    9.5901    9.5901    9.7126    9.7126    9.8613    9.8622    9.9141    9.9149   10.3204   10.3978
   11.3058   11.3058   11.3297   11.3299   11.3461   11.3462   11.3779   11.3779   12.1253   12.1257
   12.1384   12.1389   13.4993   13.5019   13.6138   13.6139   13.6344   13.6345   13.7604   13.9165
   14.5633   14.5634   14.5767   14.5767   14.6940   14.6949   14.8415   14.8423   15.0068   15.0091
   15.6781   15.6781   15.8319   15.8320   16.9297   16.9342   17.6027   17.7034   19.8029   19.8034
   19.9781   19.9781   20.1066   20.1066   20.1499   20.1499   20.1739   20.1762   20.2506   20.2506
   20.4020   20.4042   21.2231   21.4380   22.0924   22.0924   22.2860   22.4089   22.4089   22.6861
   22.8892   22.8913   22.9887   22.9887   23.1347   23.1367   23.3159   23.3159   24.0910   24.0911
   24.2391   24.2392   25.5369   25.5373   27.4298   27.4392   28.4010   28.4385   29.4614   29.4615
   29.5085   29.5087   29.5254   29.5271   29.8376   29.8388   30.0157   30.0158   30.1185   30.1186
   30.6073   30.6110   31.2250   31.2251   31.2883   31.2884   31.5156   31.5220   31.5539   31.5609
   36.1549   36.1554   36.4819   36.4824   36.5908   36.5939   36.6430   36.6468   36.7591   36.8087
   38.5316   38.5317   38.5913   38.5914   38.6477   38.6491   38.8700   38.8743   42.9047   42.9052
   43.0338   43.0343   43.6901   43.8212   43.8234   43.8776   43.8800   43.9093   44.1598   44.1599
   44.4342   44.4344   45.3428   45.3429   45.3860   45.3861   45.8795   45.8798   45.9059   45.9100
   45.9104   46.0222   47.2960   47.2998   47.3547   47.3548   47.5222   47.5224   48.2036   48.2041
   48.2558   48.2563   48.7546   48.7569   49.8702   50.0423   51.6978   51.6981   51.9909   51.9912
   52.2685   52.2745   52.6787   52.6851   54.9484   54.9485   55.4637   55.4638   55.7057   55.7087
   55.9335   55.9362   56.8868   57.4258   58.1259   58.6092   58.6093   58.8264   58.9314   58.9320
   58.9321   58.9343   61.5337   61.5339   61.8999   61.9001   62.1020   62.1052   63.0947   63.0952
   63.1676   63.1682   63.7035   63.7094   63.9408   63.9465   65.9322   65.9353   66.2101   66.2188
   66.3558   66.3637   66.5930   66.5932   66.7046   66.7049   67.3820   67.3826   68.0961   68.0966
   68.2528   68.3913   70.3297   70.5397   71.4552   71.4554   71.6008   71.6009   72.2194   72.2199
   72.5534   72.5540   73.0468   73.0555   74.2724   74.2781   75.2176   75.2222   78.4019   78.4028
   79.5489   79.5510   82.3498   82.7637   82.7640   82.8708   83.5925   83.5928   95.8699   95.8710
   96.0489   96.0500   96.7385   96.7467   97.4627   97.4707   99.1974   99.1992  103.3868  103.3873
  105.8235  105.8240  108.7687  108.7695  109.4074  109.4081  116.9021  118.4538  127.6867  127.6963
  138.5862  139.7001  141.5099  141.5208  142.3540  142.3567  142.4836  142.4867  143.0932  143.0941
  143.1802  143.1812  143.4435  143.4447  143.8943  143.8955
 100  1  -22.7438  -22.7089  -22.4404  -22.4404  -22.4057  -22.4057  -21.5581  -21.5559  -21.5239  -21.5218
         -20.1707  -20.1707  -20.1379  -20.1379  -18.7442  -18.7420  -17.7319  -17.7301  -16.0093  -16.0092
  -15.9776  -15.9775  -13.7749  -13.7742  -13.7403  -13.7395  -12.4806  -12.4805  -12.4259  -12.4258
  -12.4196  -12.3598  -11.4095  -11.4077  -11.3587  -11.3570  -11.2032  -11.2031  -11.1713  -11.1712
  -11.0737  -11.0723  -10.8474  -10.8473  -10.8095  -10.8094  -10.4255  -10.4019  -10.0794  -10.0794
  -10.0505  -10.0505  -10.0171   -9.9857   -9.0982   -9.0965   -9.0643   -9.0627   -7.6702   -7.6701
   -7.6392   -7.6391   -6.6880   -6.6862   -2.6947   -2.6924   -1.5701   -1.5700   -1.5330   -1.5329
   -0.7259   -0.6813   -0.1194   -0.1194   -0.0775   -0.0753   -0.0701   -0.0701   -0.0277   -0.0254
    3.1807    3.1842    3.6046    3.6046    3.6404    3.6405    4.4119    4.4463    4.7863    4.7886
    4.8485    4.8509    5.3793    5.3794    5.4164    5.4165    5.8818    5.9169    6.1831    6.1833
    6.1879    6.1880    6.9979    6.9982    7.0040    7.0050    7.0433    7.0436    7.0462    7.0473
    7.9693    7.9693    8.0022    8.0022    8.1066    8.2041    8.3053    8.3082    8.3300    8.3333
    8.4579    8.4896    8.6576    8.6576    8.6823    8.6824    8.8034    8.8044    8.8410    8.8419
    9.6287    9.6287    9.6743    9.6743    9.8787    9.8796    9.8984    9.8992   10.3438   10.3731
   11.3195   11.3196   11.3347   11.3349   11.3449   11.3451   11.3628   11.3629   12.1293   12.1296
   12.1341   12.1347   13.5000   13.5026   13.6175   13.6176   13.6259   13.6260   13.8084   13.8665
   14.5682   14.5682   14.5732   14.5732   14.7391   14.7400   14.7944   14.7951   15.0063   15.0086
   15.7265   15.7266   15.7841   15.7841   16.9321   16.9366   17.6342   17.6717   19.8057   19.8062
   20.0202   20.0202   20.0680   20.0680   20.1845   20.1845   20.2220   20.2220   20.2474   20.2497
   20.3324   20.3346   21.2918   21.3718   22.1899   22.1899   22.3077   22.3077   22.4103   22.5593
   22.9654   22.9674   23.0568   23.0588   23.0906   23.0906   23.2123   23.2124   24.1376   24.1377
   24.1928   24.1929   25.5368   25.5371   27.4321   27.4416   28.4086   28.4227   29.4799   29.4801
   29.4987   29.4988   29.6230   29.6246   29.7393   29.7407   30.0453   30.0454   30.0837   30.0838
   30.5983   30.6020   31.2370   31.2371   31.2614   31.2614   31.5273   31.5328   31.5421   31.5501
   36.2546   36.2551   36.3763   36.3768   36.6043   36.6074   36.6242   36.6279   36.7747   36.7932
   38.5497   38.5498   38.5720   38.5720   38.7070   38.7081   38.8112   38.8165   42.9411   42.9416
   42.9893   42.9898   43.7600   43.8376   43.8398   43.8416   43.8587   43.8611   44.2469   44.2471
   44.3491   44.3493   45.3576   45.3577   45.3737   45.3738   45.8890   45.8894   45.9008   45.9012
   45.9410   45.9846   47.2972   47.3010   47.4065   47.4067   47.4690   47.4692   48.2215   48.2224
   48.2426   48.2432   48.7450   48.7473   49.9274   49.9915   51.7964   51.7967   51.9055   51.9057
   52.3909   52.3971   52.5440   52.5502   55.1156   55.1157   55.3080   55.3081   55.7868   55.7898
   55.8717   55.8745   57.0561   57.2569   58.3383   58.5992   58.7160   58.7161   58.8367   58.8368
   58.9382   58.9411   61.6509   61.6511   61.7880   61.7881   62.0930   62.0962   63.1066   63.1071
   63.1343   63.1349   63.7880   63.7935   63.8757   63.8817   65.9049   65.9080   66.2596   66.2681
   66.3140   66.3223   66.6251   66.6254   66.6668   66.6670   67.5701   67.5707   67.8356   67.8362
   68.2913   68.3428   70.3958   70.4748   71.5018   71.5019   71.5576   71.5577   72.3108   72.3113
   72.4345   72.4350   73.0435   73.0522   74.6462   74.6518   75.0011   75.0061   78.6472   78.6479
   79.0732   79.0746   82.5120   82.7061   83.0310   83.0314   83.3393   83.3397   95.9302   95.9313
   95.9969   95.9980   96.9519   96.9603   97.2212   97.2291   99.1953   99.1970  104.1503  104.1508
  105.0578  105.0583  108.9610  108.9618  109.1990  109.1997  117.4044  117.9818  127.6869  127.6965
  138.9656  139.3803  141.5125  141.5234  142.3994  142.4009  142.4477  142.4520  143.1233  143.1243
  143.1564  143.1573  143.5977  143.5989  143.7661  143.7673
siesta: PDOS info: 
siesta: e1, e2, sigma, nhist:   -24.00 eV   15.00 eV    0.10 eV   1000

siesta: Program's energy decomposition (eV):
siesta: Ebs     =     -1761.884276
siesta: Eions   =      8179.116033
siesta: Ena     =      1796.168294
siesta: Ekin    =      3495.671724
siesta: Enl     =      -428.960328
siesta: Eso     =         0.000000
siesta: Edftu   =         0.000000
siesta: DEna    =      -157.182416
siesta: DUscf   =        13.698372
siesta: DUext   =         0.000000
siesta: Exc     =     -1505.342225
siesta: eta*DQ  =         0.000000
siesta: Emadel  =         0.000000
siesta: Emeta   =         0.000000
siesta: Emolmec =         0.000000
siesta: Ekinion =         0.000000
siesta: Eharris =     -4965.062615
siesta: Etot    =     -4965.062613
siesta: FreeEng =     -4965.062613

siesta: Final energy (eV):
siesta:  Band Struct. =   -1761.884276
siesta:       Kinetic =    3495.671724
siesta:       Hartree =   64224.105414
siesta:       Edftu   =       0.000000
siesta:       Eso     =       0.000000
siesta:    Ext. field =       0.000000
siesta:   Exch.-corr. =   -1505.342225
siesta:  Ion-electron = -131737.660257
siesta:       Ion-ion =   60558.162731
siesta:       Ekinion =       0.000000
siesta:         Total =   -4965.062613
siesta:         Fermi =      -4.804823

siesta: Stress tensor (static) (eV/Ang**3):
siesta:     0.000012    0.000000    0.000000
siesta:    -0.000000    0.000012   -0.000000
siesta:     0.000000   -0.000000   -0.002230

siesta: Cell volume =       6768.000000 Ang**3

siesta: Pressure (static):
siesta:                Solid            Molecule  Units
siesta:           0.00000801          0.00000820  Ry/Bohr**3
siesta:           0.00073518          0.00075289  eV/Ang**3
siesta:           1.17789714          1.20626870  kBar
(Free)E+ p_basis*V_orbitals  =       -4947.222997
(Free)Eharris+ p_basis*V_orbitals  =       -4947.222999

siesta: Electric dipole (a.u.)  =    0.000022    0.000008   -0.000000
siesta: Electric dipole (Debye) =    0.000057    0.000020   -0.000000

cite: Please see "siesta.bib" for an exhaustive BiBTeX file.
cite: Please clearly indicate Siesta version in published work: 4.1.5
cite: This calculation has made use of the following articles
cite: which are encouraged to be cited in a published work.
        Primary SIESTA paper
          DOI: www.doi.org/10.1088/0953-8984/14/11/302

>> End of run:  10-FEB-2022  18:21:16
Job completed
