Siesta Version: siesta-4.0b-485
Architecture  : x86_64-unknown-linux-gnu--Intel
Compiler flags: mpifc -g
PP flags      : -DMPI -DFC_HAVE_FLUSH -DFC_HAVE_ABORT 
PARALLEL version

* Running on   48 nodes in parallel
>> Start of run:   2-AUG-2019   2:55:56

                           ***********************       
                           *  WELCOME TO SIESTA  *       
                           ***********************       

reinit: Reading from standard input
************************** Dump of input data file ****************************
SystemName          nanotube (7,7)
SystemLabel         C112
NumberOfAtoms       117
NumberOfSpecies     2
WriteMullikenPop    1
%block ChemicalSpeciesLabel
 1  3  Li
 2  6  C
%endblock ChemicalSpeciesLabel
#PAO.BasisSize  DZP
PAO.EnergyShift  0.05 eV
MeshCutoff       200.0 Ry
PAO.SplitNorm  0.59
#kgrid_cutoff     5.0 Bohr
%block kgrid_Monkhorst_Pack
  1  0  0   0.5
  0  1  0   0.5
  0  0  32  0.5
%endblock kgrid_Monkhorst_Pack
Spinpolarized  true
MaxSCFIterations       150
Diag.ParallelOverK   .true.
SolutionMethod         diagon
NetCharge     0.00
DM.NumberPulay    4
DM.MixingWeight   0.3
DM.UseSaveDM      .true.
NeglNonOverlapInt False
AtomicCoordinatesFormat  NotScaledCartesianAng
#AtomicCoordinatesAndAtomicSpecies < nano.xyz
XC.functional=LDA
XC.authors=CA
ZM.UnitsLength = Ang
%block Zmatrix
cartesian
  2   0.185565  -4.691394   0.022702  1  1  1
  2  -1.222057  -4.532410   0.021587  1  1  1
  2   2.850622  -3.800928   0.022679  1  1  1
  2   4.858428  -0.192152   0.023917  1  1  1
  2   3.873276  -2.820863   0.023053  1  1  1
  2   4.724919   1.218058   0.022762  1  1  1
  2   3.232988   3.601819   0.019514  1  1  1
  2  -3.629972  -3.083696   0.019677  1  1  1
  2   2.006366   4.321154   0.019501  1  1  1
  2  -4.411280  -1.901465   0.019767  1  1  1
  2  -4.710731   0.884693   0.021593  1  1  1
  2  -4.193608   2.203592   0.021847  1  1  1
  2  -0.798427   4.577518   0.021465  1  1  1
  2  -2.138627   4.119395   0.022065  1  1  1
  1   1.627923   2.011104   1.257183  1  1  1
  2   2.239054  -4.167944   1.245146  1  1  1
  2   0.894587  -4.614319   1.245291  1  1  1
  2  -1.899070  -4.304943   1.243849  1  1  1
  2   4.267889  -2.225852   1.244848  1  1  1
  2  -3.115070  -3.578619   1.242698  1  1  1
  2  -4.653838  -1.229768   1.241802  1  1  1
  2  -2.749550   3.753157   1.244350  1  1  1
  2  -4.803062   0.176912   1.243330  1  1  1
  2  -3.784118   2.786310   1.244671  1  1  1
  2   4.766859  -0.900390   1.244843  1  1  1
  2   4.500762   1.897627   1.245210  1  1  1
  2   3.757647   3.109945   1.244961  1  1  1
  2  -0.088970   4.661762   1.243228  1  1  1
  2   1.325160   4.543174   1.243623  1  1  1
  2  -3.641927  -3.093372   2.465994  1  1  1
  2   2.850024  -3.798255   2.467584  1  1  1
  2  -1.221770  -4.531370   2.466736  1  1  1
  2   0.185190  -4.687831   2.467490  1  1  1
  2  -4.188777   2.199335   2.466508  1  1  1
  2   3.875055  -2.821770   2.465874  1  1  1
  2  -4.420416  -1.904488   2.465551  1  1  1
  2  -4.711920   0.884412   2.465365  1  1  1
  2   4.861159  -0.191828   2.465468  1  1  1
  2  -0.799689   4.582189   2.465708  1  1  1
  2   2.002672   4.312243   2.469366  1  1  1
  2  -2.138879   4.120613   2.466251  1  1  1
  2   4.727227   1.217526   2.467134  1  1  1
  2   3.228569   3.595008   2.471369  1  1  1
  1   2.332977  -0.864585   4.851456  1  1  1
  2   0.894116  -4.612959   3.690634  1  1  1
  2  -3.116365  -3.579333   3.690057  1  1  1
  2  -4.666479  -1.229626   3.687227  1  1  1
  2  -4.819341   0.178307   3.685589  1  1  1
  2  -1.895912  -4.300855   3.689954  1  1  1
  2  -3.783657   2.784588   3.688819  1  1  1
  2   2.235743  -4.161764   3.690024  1  1  1
  2   4.777161  -0.902746   3.688811  1  1  1
  2  -2.751051   3.752795   3.689771  1  1  1
  2   4.279681  -2.230674   3.688364  1  1  1
  2  -0.092251   4.691873   3.688797  1  1  1
  2   1.317881   4.530486   3.691328  1  1  1
  2   4.495710   1.890643   3.691676  1  1  1
  2   3.726426   3.078833   3.693216  1  1  1
  1  -0.238786   2.266411   4.278724  1  1  1
  1  -1.933065  -1.363939   3.184627  1  1  1
  2  -4.411246  -1.896510   4.912767  1  1  1
  2  -4.740075   0.889632   4.909339  1  1  1
  2   4.876089  -0.194806   4.913365  1  1  1
  2  -3.626165  -3.075467   4.914392  1  1  1
  2   4.727557   1.214717   4.913363  1  1  1
  2  -4.202869   2.203108   4.909987  1  1  1
  2   2.848446  -3.796246   4.913122  1  1  1
  2  -1.219955  -4.528793   4.913200  1  1  1
  2   0.186022  -4.688568   4.913041  1  1  1
  2   3.886587  -2.829972   4.913128  1  1  1
  2  -2.140442   4.124136   4.911706  1  1  1
  2  -0.805518   4.609067   4.912895  1  1  1
  2   1.993028   4.299451   4.913253  1  1  1
  2   3.203213   3.565818   4.913372  1  1  1
  2   4.776308  -0.903780   6.138246  1  1  1
  2   4.279965  -2.232051   6.138216  1  1  1
  2   4.489416   1.886154   6.135880  1  1  1
  2   0.895950  -4.615635   6.135791  1  1  1
  2   1.315405   4.524995   6.135426  1  1  1
  2   2.238905  -4.166384   6.136218  1  1  1
  2  -3.109809  -3.570437   6.135350  1  1  1
  2   3.717013   3.071869   6.135223  1  1  1
  2  -0.092907   4.675689   6.136065  1  1  1
  2  -4.669724  -1.229084   6.135859  1  1  1
  2  -4.853854   0.180788   6.134614  1  1  1
  2  -3.797276   2.793451   6.133802  1  1  1
  2  -1.897699  -4.303481   6.135013  1  1  1
  2  -2.749161   3.748753   6.135464  1  1  1
  1  -2.472633   0.498931   6.154764  1  1  1
  2   3.208329   3.573105   7.356049  1  1  1
  2   3.878245  -2.825020   7.360325  1  1  1
  2   1.994208   4.302085   7.356511  1  1  1
  2   4.864553  -0.194248   7.361356  1  1  1
  2   4.726150   1.215119   7.359367  1  1  1
  2   0.185719  -4.690842   7.357950  1  1  1
  2   2.853555  -3.803490   7.358798  1  1  1
  2  -0.801299   4.585459   7.357892  1  1  1
  2  -2.141352   4.122841   7.357946  1  1  1
  2  -1.222579  -4.535254   7.357144  1  1  1
  2  -4.413276  -1.899025   7.357007  1  1  1
  2  -3.626467  -3.077213   7.356521  1  1  1
  2  -4.207983   2.208055   7.358966  1  1  1
  2  -4.741575   0.890508   7.359462  1  1  1
  2   3.732602   3.088394   8.577879  1  1  1
  2   4.493487   1.892317   8.579870  1  1  1
  2   4.267984  -2.226560   8.581803  1  1  1
  2   4.765079  -0.900495   8.582327  1  1  1
  2  -1.898312  -4.306101   8.579726  1  1  1
  2   2.239583  -4.168954   8.580647  1  1  1
  2   1.319181   4.528110   8.578691  1  1  1
  2   0.895060  -4.616672   8.580442  1  1  1
  2  -3.111255  -3.573455   8.579145  1  1  1
  2  -0.090674   4.664974   8.579826  1  1  1
  2  -4.659045  -1.229917   8.580440  1  1  1
  2  -2.752611   3.755912   8.579286  1  1  1
  2  -4.817791   0.178011   8.581821  1  1  1
  2  -3.790333   2.790969   8.580064  1  1  1
%endblock Zmatrix
LatticeConstant      97.8061228574  Ang
%block LatticeParameters
  1.0 1.0 0.1 90. 90. 90.   #14.8921728
%endblock LatticeParameters
WriteCoorXmol     True
WriteForces .true.
WriteMullikenPop     1
SaveRho                  .true.
SaveBaderCharge   .true.
WriteHirshfeldPop   .true.
WriteVoronoiPop  .true.
%block ProjectedDensityOfStates
   -24.00  15.00  0.100  1000  eV
%endblock ProjectedDensityOfStates
MD.TypeOfRun           cg               # Type of dynamics: Conjugate gradients
MD.NumCGsteps          320              # number of CG steps
MD.MaxCGDispl          0.15 Ang
MD.MaxForceTol         0.04 eV/Ang
MD.UseSaveXV           yes
MD.VariableCell        .false.
************************** End of input data file *****************************

reinit: -----------------------------------------------------------------------
reinit: System Name: nanotube (7,7
reinit: -----------------------------------------------------------------------
reinit: System Label: C112                                                        
reinit: -----------------------------------------------------------------------

initatom: Reading input for the pseudopotentials and atomic orbitals ----------
 Species number:            1  Label: Li Atomic number:           3
 Species number:            2  Label: C Atomic number:           6
Ground state valence configuration:   2s01
Reading pseudopotential information in formatted form from Li.psf

Valence configuration for pseudopotential generation:
2s( 1.00) rc: 2.28
2p( 0.00) rc: 2.28
3d( 0.00) rc: 2.59
4f( 0.00) rc: 2.59
Ground state valence configuration:   2s02  2p02
Reading pseudopotential information in formatted form from C.psf

Valence configuration for pseudopotential generation:
2s( 2.00) rc: 1.25
2p( 2.00) rc: 1.25
3d( 0.00) rc: 1.25
4f( 0.00) rc: 1.25
For Li, standard SIESTA heuristics set lmxkb to 2
 (one more than the basis l, including polarization orbitals).
Use PS.lmax or PS.KBprojectors blocks to override.
For C, standard SIESTA heuristics set lmxkb to 3
 (one more than the basis l, including polarization orbitals).
Use PS.lmax or PS.KBprojectors blocks to override.

<basis_specs>
===============================================================================
Li                   Z=   3    Mass=  6.9400        Charge= 0.17977+309
Lmxo=0 Lmxkb= 2    BasisType=split      Semic=F
L=0  Nsemic=0  Cnfigmx=2
          n=1  nzeta=2  polorb=1
            splnorm:   0.59000    
               vcte:    0.0000    
               rinn:    0.0000    
               qcoe:    0.0000    
               qyuk:    0.0000    
               qwid:   0.10000E-01
                rcs:    0.0000      0.0000    
            lambdas:    1.0000      1.0000    
-------------------------------------------------------------------------------
L=0  Nkbl=1  erefs: 0.17977+309
L=1  Nkbl=1  erefs: 0.17977+309
L=2  Nkbl=1  erefs: 0.17977+309
===============================================================================
</basis_specs>

atom: Called for Li                    (Z =   3)

read_vps: Pseudopotential generation method:
read_vps: ATM 3.2.2 Troullier-Martins                       
Total valence charge:    1.00000

read_vps: Pseudopotential includes a core correction:
read_vps: Pseudo-core for xc-correction

xc_check: Exchange-correlation functional:
xc_check: Ceperley-Alder
V l=0 = -2*Zval/r beyond r=  2.2278
V l=1 = -2*Zval/r beyond r=  2.2278
V l=2 = -2*Zval/r beyond r=  2.5245
All V_l potentials equal beyond r=  2.4932
This should be close to max(r_c) in ps generation
All pots = -2*Zval/r beyond r=  2.5245

VLOCAL1: 99.0% of the norm of Vloc inside      6.983 Ry
VLOCAL1: 99.9% of the norm of Vloc inside     15.915 Ry
atom: Maximum radius for 4*pi*r*r*local-pseudopot. charge    2.89679
atom: Maximum radius for r*vlocal+2*Zval:    2.46219
GHOST: No ghost state for L =  0
GHOST: No ghost state for L =  1
GHOST: No ghost state for L =  2

KBgen: Kleinman-Bylander projectors: 
   l= 0   rc=  2.687416   el= -0.211535   Ekb=  1.687927   kbcos=  0.233983
   l= 1   rc=  2.755470   el= -0.083009   Ekb= -1.097314   kbcos= -0.153392
   l= 2   rc=  2.860793   el=  0.002356   Ekb= -0.211588   kbcos= -0.031024

KBgen: Total number of  Kleinman-Bylander projectors:    9
atom: -------------------------------------------------------------------------

atom: SANKEY-TYPE ORBITALS:
atom: Selected multiple-zeta basis: split     

SPLIT: Orbitals with angular momentum L= 0

SPLIT: Basis orbitals for state 2s

SPLIT: PAO cut-off radius determined from an
SPLIT: energy shift=  0.003675 Ry

   izeta = 1
                 lambda =    1.000000
                     rc =    9.987207
                 energy =   -0.208154
                kinetic =    0.151718
    potential(screened) =   -0.359872
       potential(ionic) =   -0.537364

   izeta = 2
                 rmatch =    5.761768
              splitnorm =    0.590000
                 energy =   -0.011018
                kinetic =    0.491809
    potential(screened) =   -0.502827
       potential(ionic) =   -0.688445

POLgen: Perturbative polarization orbital with L=  1

POLgen: Polarization orbital for state 2s

   izeta = 1
                     rc =    9.987207
                 energy =   -0.016884
                kinetic =    0.305445
    potential(screened) =   -0.322329
       potential(ionic) =   -0.502117
atom: Total number of Sankey-type orbitals:  5

atm_pop: Valence configuration (for local Pseudopot. screening):
 2s( 1.00)                                                            
Vna: chval, zval:    1.00000   1.00000

Vna:  Cut-off radius for the neutral-atom potential:   9.987207
comcore: Pseudo-core radius Rcore=  3.494364

atom: _________________________________________________________________________

<basis_specs>
===============================================================================
C                    Z=   6    Mass=  12.010        Charge= 0.17977+309
Lmxo=1 Lmxkb= 3    BasisType=split      Semic=F
L=0  Nsemic=0  Cnfigmx=2
          n=1  nzeta=2  polorb=0
            splnorm:   0.59000    
               vcte:    0.0000    
               rinn:    0.0000    
               qcoe:    0.0000    
               qyuk:    0.0000    
               qwid:   0.10000E-01
                rcs:    0.0000      0.0000    
            lambdas:    1.0000      1.0000    
L=1  Nsemic=0  Cnfigmx=2
          n=1  nzeta=2  polorb=1
            splnorm:   0.59000    
               vcte:    0.0000    
               rinn:    0.0000    
               qcoe:    0.0000    
               qyuk:    0.0000    
               qwid:   0.10000E-01
                rcs:    0.0000      0.0000    
            lambdas:    1.0000      1.0000    
-------------------------------------------------------------------------------
L=0  Nkbl=1  erefs: 0.17977+309
L=1  Nkbl=1  erefs: 0.17977+309
L=2  Nkbl=1  erefs: 0.17977+309
L=3  Nkbl=1  erefs: 0.17977+309
===============================================================================
</basis_specs>

atom: Called for C                     (Z =   6)

read_vps: Pseudopotential generation method:
read_vps: ATM3      Troullier-Martins                       
Total valence charge:    4.00000

xc_check: Exchange-correlation functional:
xc_check: Ceperley-Alder
V l=0 = -2*Zval/r beyond r=  1.3951
V l=1 = -2*Zval/r beyond r=  1.3777
V l=2 = -2*Zval/r beyond r=  1.3777
V l=3 = -2*Zval/r beyond r=  1.3777
All V_l potentials equal beyond r=  1.2311
This should be close to max(r_c) in ps generation
All pots = -2*Zval/r beyond r=  1.3951

VLOCAL1: 99.0% of the norm of Vloc inside     28.641 Ry
VLOCAL1: 99.9% of the norm of Vloc inside     65.273 Ry
atom: Maximum radius for 4*pi*r*r*local-pseudopot. charge    1.48507
atom: Maximum radius for r*vlocal+2*Zval:    1.27815
GHOST: No ghost state for L =  0
GHOST: No ghost state for L =  1
GHOST: No ghost state for L =  2
GHOST: No ghost state for L =  3

KBgen: Kleinman-Bylander projectors: 
   l= 0   rc=  1.600766   el= -1.001946   Ekb=  7.816946   kbcos=  0.279978
   l= 1   rc=  1.620907   el= -0.398597   Ekb= -4.829535   kbcos= -0.287433
   l= 2   rc=  1.836783   el=  0.002326   Ekb= -1.327964   kbcos= -0.005365
   l= 3   rc=  1.979871   el=  0.003420   Ekb= -0.522285   kbcos= -0.000569

KBgen: Total number of  Kleinman-Bylander projectors:   16
atom: -------------------------------------------------------------------------

atom: SANKEY-TYPE ORBITALS:
atom: Selected multiple-zeta basis: split     

SPLIT: Orbitals with angular momentum L= 0

SPLIT: Basis orbitals for state 2s

SPLIT: PAO cut-off radius determined from an
SPLIT: energy shift=  0.003675 Ry

   izeta = 1
                 lambda =    1.000000
                     rc =    5.120028
                 energy =   -0.998772
                kinetic =    0.858242
    potential(screened) =   -1.857014
       potential(ionic) =   -5.418547

   izeta = 2
                 rmatch =    2.300349
              splitnorm =    0.590000
                 energy =    0.102977
                kinetic =    2.861156
    potential(screened) =   -2.758179
       potential(ionic) =   -6.824757

SPLIT: Orbitals with angular momentum L= 1

SPLIT: Basis orbitals for state 2p

SPLIT: PAO cut-off radius determined from an
SPLIT: energy shift=  0.003675 Ry

   izeta = 1
                 lambda =    1.000000
                     rc =    6.253707
                 energy =   -0.395142
                kinetic =    2.439321
    potential(screened) =   -2.834463
       potential(ionic) =   -6.264070

   izeta = 2
                 rmatch =    2.030003
              splitnorm =    0.590000
                 energy =    0.951237
                kinetic =    7.827527
    potential(screened) =   -6.876290
       potential(ionic) =  -11.218295

POLgen: Perturbative polarization orbital with L=  2

POLgen: Polarization orbital for state 2p

   izeta = 1
                     rc =    6.253707
                 energy =    1.009535
                kinetic =    2.120051
    potential(screened) =   -1.110516
       potential(ionic) =   -3.842863
atom: Total number of Sankey-type orbitals: 13

atm_pop: Valence configuration (for local Pseudopot. screening):
 2s( 2.00)                                                            
 2p( 2.00)                                                            
Vna: chval, zval:    4.00000   4.00000

Vna:  Cut-off radius for the neutral-atom potential:   6.253707

atom: _________________________________________________________________________

prinput: Basis input ----------------------------------------------------------

PAO.BasisType split     

%block ChemicalSpeciesLabel
    1    3 Li                      # Species index, atomic number, species label
    2    6 C                       # Species index, atomic number, species label
%endblock ChemicalSpeciesLabel

%block PAO.Basis                 # Define Basis set
Li                    1                    # Species label, number of l-shells
 n=2   0   2 P   1                   # n, l, Nzeta, Polarization, NzetaPol
   9.987      5.762   
   1.000      1.000   
C                     2                    # Species label, number of l-shells
 n=2   0   2                         # n, l, Nzeta 
   5.120      2.300   
   1.000      1.000   
 n=2   1   2 P   1                   # n, l, Nzeta, Polarization, NzetaPol
   6.254      2.030   
   1.000      1.000   
%endblock PAO.Basis

prinput: ----------------------------------------------------------------------

coor:   Atomic-coordinates input format  =     Cartesian coordinates
coor:                                          (in Angstroms)
read_Zmatrix: Length units: Ang       
read_Zmatrix: Angle  units: rad       
read_Zmatrix: Force tolerances:
read_Zmatrix:    for lengths =     0.001556 Ry/Bohr
read_Zmatrix:    for angles  =     0.003565 Ry/rad

read_Zmatrix: Maximum displacements:
read_Zmatrix:    for lengths =     0.200000 Bohr
read_Zmatrix:    for angles  =     0.003000 rad
%block Zmatrix
cartesian
  2   0.185565  -4.691394   0.022702  1  1  1
  2  -1.222057  -4.532410   0.021587  1  1  1
  2   2.850622  -3.800928   0.022679  1  1  1
  2   4.858428  -0.192152   0.023917  1  1  1
  2   3.873276  -2.820863   0.023053  1  1  1
  2   4.724919   1.218058   0.022762  1  1  1
  2   3.232988   3.601819   0.019514  1  1  1
  2  -3.629972  -3.083696   0.019677  1  1  1
  2   2.006366   4.321154   0.019501  1  1  1
  2  -4.411280  -1.901465   0.019767  1  1  1
  2  -4.710731   0.884693   0.021593  1  1  1
  2  -4.193608   2.203592   0.021847  1  1  1
  2  -0.798427   4.577518   0.021465  1  1  1
  2  -2.138627   4.119395   0.022065  1  1  1
  1   1.627923   2.011104   1.257183  1  1  1
  2   2.239054  -4.167944   1.245146  1  1  1
  2   0.894587  -4.614319   1.245291  1  1  1
  2  -1.899070  -4.304943   1.243849  1  1  1
  2   4.267889  -2.225852   1.244848  1  1  1
  2  -3.115070  -3.578619   1.242698  1  1  1
  2  -4.653838  -1.229768   1.241802  1  1  1
  2  -2.749550   3.753157   1.244350  1  1  1
  2  -4.803062   0.176912   1.243330  1  1  1
  2  -3.784118   2.786310   1.244671  1  1  1
  2   4.766859  -0.900390   1.244843  1  1  1
  2   4.500762   1.897627   1.245210  1  1  1
  2   3.757647   3.109945   1.244961  1  1  1
  2  -0.088970   4.661762   1.243228  1  1  1
  2   1.325160   4.543174   1.243623  1  1  1
  2  -3.641927  -3.093372   2.465994  1  1  1
  2   2.850024  -3.798255   2.467584  1  1  1
  2  -1.221770  -4.531370   2.466736  1  1  1
  2   0.185190  -4.687831   2.467490  1  1  1
  2  -4.188777   2.199335   2.466508  1  1  1
  2   3.875055  -2.821770   2.465874  1  1  1
  2  -4.420416  -1.904488   2.465551  1  1  1
  2  -4.711920   0.884412   2.465365  1  1  1
  2   4.861159  -0.191828   2.465468  1  1  1
  2  -0.799689   4.582189   2.465708  1  1  1
  2   2.002672   4.312243   2.469366  1  1  1
  2  -2.138879   4.120613   2.466251  1  1  1
  2   4.727227   1.217526   2.467134  1  1  1
  2   3.228569   3.595008   2.471369  1  1  1
  1   2.332977  -0.864585   4.851456  1  1  1
  2   0.894116  -4.612959   3.690634  1  1  1
  2  -3.116365  -3.579333   3.690057  1  1  1
  2  -4.666479  -1.229626   3.687227  1  1  1
  2  -4.819341   0.178307   3.685589  1  1  1
  2  -1.895912  -4.300855   3.689954  1  1  1
  2  -3.783657   2.784588   3.688819  1  1  1
  2   2.235743  -4.161764   3.690024  1  1  1
  2   4.777161  -0.902746   3.688811  1  1  1
  2  -2.751051   3.752795   3.689771  1  1  1
  2   4.279681  -2.230674   3.688364  1  1  1
  2  -0.092251   4.691873   3.688797  1  1  1
  2   1.317881   4.530486   3.691328  1  1  1
  2   4.495710   1.890643   3.691676  1  1  1
  2   3.726426   3.078833   3.693216  1  1  1
  1  -0.238786   2.266411   4.278724  1  1  1
  1  -1.933065  -1.363939   3.184627  1  1  1
  2  -4.411246  -1.896510   4.912767  1  1  1
  2  -4.740075   0.889632   4.909339  1  1  1
  2   4.876089  -0.194806   4.913365  1  1  1
  2  -3.626165  -3.075467   4.914392  1  1  1
  2   4.727557   1.214717   4.913363  1  1  1
  2  -4.202869   2.203108   4.909987  1  1  1
  2   2.848446  -3.796246   4.913122  1  1  1
  2  -1.219955  -4.528793   4.913200  1  1  1
  2   0.186022  -4.688568   4.913041  1  1  1
  2   3.886587  -2.829972   4.913128  1  1  1
  2  -2.140442   4.124136   4.911706  1  1  1
  2  -0.805518   4.609067   4.912895  1  1  1
  2   1.993028   4.299451   4.913253  1  1  1
  2   3.203213   3.565818   4.913372  1  1  1
  2   4.776308  -0.903780   6.138246  1  1  1
  2   4.279965  -2.232051   6.138216  1  1  1
  2   4.489416   1.886154   6.135880  1  1  1
  2   0.895950  -4.615635   6.135791  1  1  1
  2   1.315405   4.524995   6.135426  1  1  1
  2   2.238905  -4.166384   6.136218  1  1  1
  2  -3.109809  -3.570437   6.135350  1  1  1
  2   3.717013   3.071869   6.135223  1  1  1
  2  -0.092907   4.675689   6.136065  1  1  1
  2  -4.669724  -1.229084   6.135859  1  1  1
  2  -4.853854   0.180788   6.134614  1  1  1
  2  -3.797276   2.793451   6.133802  1  1  1
  2  -1.897699  -4.303481   6.135013  1  1  1
  2  -2.749161   3.748753   6.135464  1  1  1
  1  -2.472633   0.498931   6.154764  1  1  1
  2   3.208329   3.573105   7.356049  1  1  1
  2   3.878245  -2.825020   7.360325  1  1  1
  2   1.994208   4.302085   7.356511  1  1  1
  2   4.864553  -0.194248   7.361356  1  1  1
  2   4.726150   1.215119   7.359367  1  1  1
  2   0.185719  -4.690842   7.357950  1  1  1
  2   2.853555  -3.803490   7.358798  1  1  1
  2  -0.801299   4.585459   7.357892  1  1  1
  2  -2.141352   4.122841   7.357946  1  1  1
  2  -1.222579  -4.535254   7.357144  1  1  1
  2  -4.413276  -1.899025   7.357007  1  1  1
  2  -3.626467  -3.077213   7.356521  1  1  1
  2  -4.207983   2.208055   7.358966  1  1  1
  2  -4.741575   0.890508   7.359462  1  1  1
  2   3.732602   3.088394   8.577879  1  1  1
  2   4.493487   1.892317   8.579870  1  1  1
  2   4.267984  -2.226560   8.581803  1  1  1
  2   4.765079  -0.900495   8.582327  1  1  1
  2  -1.898312  -4.306101   8.579726  1  1  1
  2   2.239583  -4.168954   8.580647  1  1  1
  2   1.319181   4.528110   8.578691  1  1  1
  2   0.895060  -4.616672   8.580442  1  1  1
  2  -3.111255  -3.573455   8.579145  1  1  1
  2  -0.090674   4.664974   8.579826  1  1  1
  2  -4.659045  -1.229917   8.580440  1  1  1
  2  -2.752611   3.755912   8.579286  1  1  1
  2  -4.817791   0.178011   8.581821  1  1  1
  2  -3.790333   2.790969   8.580064  1  1  1
%endblock Zmatrix
 nZmol:            0
 nSpecies:            2           2           2           2           2
           2           2           2           2           2           2
           2           2           2           1           2           2
           2           2           2           2           2           2
           2           2           2           2           2           2
           2           2           2           2           2           2
           2           2           2           2           2           2
           2           2           1           2           2           2
           2           2           2           2           2           2
           2           2           2           2           2           1
           1           2           2           2           2           2
           2           2           2           2           2           2
           2           2           2           2           2           2
           2           2           2           2           2           2
           2           2           2           2           2           1
           2           2           2           2           2           2
           2           2           2           2           2           2
           2           2           2           2           2           2
           2           2           2           2           2           2
           2           2           2           2

zmatrix: Z-matrix coordinates: (Ang ; rad )
zmatrix: (Fractional coordinates have been converted to cartesian)
cartesian block    1 (   117 atoms)
      0.18556500     -4.69139400      0.02270200
     -1.22205700     -4.53241000      0.02158700
      2.85062200     -3.80092800      0.02267900
      4.85842800     -0.19215200      0.02391700
      3.87327600     -2.82086300      0.02305300
      4.72491900      1.21805800      0.02276200
      3.23298800      3.60181900      0.01951400
     -3.62997200     -3.08369600      0.01967700
      2.00636600      4.32115400      0.01950100
     -4.41128000     -1.90146500      0.01976700
     -4.71073100      0.88469300      0.02159300
     -4.19360800      2.20359200      0.02184700
     -0.79842700      4.57751800      0.02146500
     -2.13862700      4.11939500      0.02206500
      1.62792300      2.01110400      1.25718300
      2.23905400     -4.16794400      1.24514600
      0.89458700     -4.61431900      1.24529100
     -1.89907000     -4.30494300      1.24384900
      4.26788900     -2.22585200      1.24484800
     -3.11507000     -3.57861900      1.24269800
     -4.65383800     -1.22976800      1.24180200
     -2.74955000      3.75315700      1.24435000
     -4.80306200      0.17691200      1.24333000
     -3.78411800      2.78631000      1.24467100
      4.76685900     -0.90039000      1.24484300
      4.50076200      1.89762700      1.24521000
      3.75764700      3.10994500      1.24496100
     -0.08897000      4.66176200      1.24322800
      1.32516000      4.54317400      1.24362300
     -3.64192700     -3.09337200      2.46599400
      2.85002400     -3.79825500      2.46758400
     -1.22177000     -4.53137000      2.46673600
      0.18519000     -4.68783100      2.46749000
     -4.18877700      2.19933500      2.46650800
      3.87505500     -2.82177000      2.46587400
     -4.42041600     -1.90448800      2.46555100
     -4.71192000      0.88441200      2.46536500
      4.86115900     -0.19182800      2.46546800
     -0.79968900      4.58218900      2.46570800
      2.00267200      4.31224300      2.46936600
     -2.13887900      4.12061300      2.46625100
      4.72722700      1.21752600      2.46713400
      3.22856900      3.59500800      2.47136900
      2.33297700     -0.86458500      4.85145600
      0.89411600     -4.61295900      3.69063400
     -3.11636500     -3.57933300      3.69005700
     -4.66647900     -1.22962600      3.68722700
     -4.81934100      0.17830700      3.68558900
     -1.89591200     -4.30085500      3.68995400
     -3.78365700      2.78458800      3.68881900
      2.23574300     -4.16176400      3.69002400
      4.77716100     -0.90274600      3.68881100
     -2.75105100      3.75279500      3.68977100
      4.27968100     -2.23067400      3.68836400
     -0.09225100      4.69187300      3.68879700
      1.31788100      4.53048600      3.69132800
      4.49571000      1.89064300      3.69167600
      3.72642600      3.07883300      3.69321600
     -0.23878600      2.26641100      4.27872400
     -1.93306500     -1.36393900      3.18462700
     -4.41124600     -1.89651000      4.91276700
     -4.74007500      0.88963200      4.90933900
      4.87608900     -0.19480600      4.91336500
     -3.62616500     -3.07546700      4.91439200
      4.72755700      1.21471700      4.91336300
     -4.20286900      2.20310800      4.90998700
      2.84844600     -3.79624600      4.91312200
     -1.21995500     -4.52879300      4.91320000
      0.18602200     -4.68856800      4.91304100
      3.88658700     -2.82997200      4.91312800
     -2.14044200      4.12413600      4.91170600
     -0.80551800      4.60906700      4.91289500
      1.99302800      4.29945100      4.91325300
      3.20321300      3.56581800      4.91337200
      4.77630800     -0.90378000      6.13824600
      4.27996500     -2.23205100      6.13821600
      4.48941600      1.88615400      6.13588000
      0.89595000     -4.61563500      6.13579100
      1.31540500      4.52499500      6.13542600
      2.23890500     -4.16638400      6.13621800
     -3.10980900     -3.57043700      6.13535000
      3.71701300      3.07186900      6.13522300
     -0.09290700      4.67568900      6.13606500
     -4.66972400     -1.22908400      6.13585900
     -4.85385400      0.18078800      6.13461400
     -3.79727600      2.79345100      6.13380200
     -1.89769900     -4.30348100      6.13501300
     -2.74916100      3.74875300      6.13546400
     -2.47263300      0.49893100      6.15476400
      3.20832900      3.57310500      7.35604900
      3.87824500     -2.82502000      7.36032500
      1.99420800      4.30208500      7.35651100
      4.86455300     -0.19424800      7.36135600
      4.72615000      1.21511900      7.35936700
      0.18571900     -4.69084200      7.35795000
      2.85355500     -3.80349000      7.35879800
     -0.80129900      4.58545900      7.35789200
     -2.14135200      4.12284100      7.35794600
     -1.22257900     -4.53525400      7.35714400
     -4.41327600     -1.89902500      7.35700700
     -3.62646700     -3.07721300      7.35652100
     -4.20798300      2.20805500      7.35896600
     -4.74157500      0.89050800      7.35946200
      3.73260200      3.08839400      8.57787900
      4.49348700      1.89231700      8.57987000
      4.26798400     -2.22656000      8.58180300
      4.76507900     -0.90049500      8.58232700
     -1.89831200     -4.30610100      8.57972600
      2.23958300     -4.16895400      8.58064700
      1.31918100      4.52811000      8.57869100
      0.89506000     -4.61667200      8.58044200
     -3.11125500     -3.57345500      8.57914500
     -0.09067400      4.66497400      8.57982600
     -4.65904500     -1.22991700      8.58044000
     -2.75261100      3.75591200      8.57928600
     -4.81779100      0.17801100      8.58182100
     -3.79033300      2.79096900      8.58006400


Z-matrix Symbol Section -------
Variables
Constants
------------ End of Z-matrix Information


siesta: WARNING: XV file not found

siesta: Atomic coordinates (Bohr) and species
siesta:      0.35067  -8.86545   0.04290  2        1
siesta:     -2.30935  -8.56502   0.04079  2        2
siesta:      5.38690  -7.18272   0.04286  2        3
siesta:      9.18110  -0.36311   0.04520  2        4
siesta:      7.31943  -5.33066   0.04356  2        5
siesta:      8.92881   2.30180   0.04301  2        6
siesta:      6.10946   6.80645   0.03688  2        7
siesta:     -6.85966  -5.82734   0.03718  2        8
siesta:      3.79148   8.16580   0.03685  2        9
siesta:     -8.33611  -3.59325   0.03735  2       10
siesta:     -8.90199   1.67183   0.04080  2       11
siesta:     -7.92477   4.16419   0.04128  2       12
siesta:     -1.50881   8.65026   0.04056  2       13
siesta:     -4.04142   7.78453   0.04170  2       14
siesta:      3.07633   3.80044   2.37573  1       15
siesta:      4.23120  -7.87628   2.35299  2       16
siesta:      1.69053  -8.71980   2.35326  2       17
siesta:     -3.58872  -8.13517   2.35053  2       18
siesta:      8.06514  -4.20625   2.35242  2       19
siesta:     -5.88663  -6.76261   2.34836  2       20
siesta:     -8.79448  -2.32393   2.34667  2       21
siesta:     -5.19590   7.09244   2.35148  2       22
siesta:     -9.07648   0.33432   2.34955  2       23
siesta:     -7.15095   5.26536   2.35209  2       24
siesta:      9.00806  -1.70149   2.35241  2       25
siesta:      8.50521   3.58600   2.35311  2       26
siesta:      7.10093   5.87695   2.35264  2       27
siesta:     -0.16813   8.80946   2.34936  2       28
siesta:      2.50419   8.58536   2.35011  2       29
siesta:     -6.88225  -5.84563   4.66006  2       30
siesta:      5.38577  -7.17766   4.66306  2       31
siesta:     -2.30881  -8.56305   4.66146  2       32
siesta:      0.34996  -8.85872   4.66288  2       33
siesta:     -7.91564   4.15614   4.66103  2       34
siesta:      7.32280  -5.33237   4.65983  2       35
siesta:     -8.35338  -3.59896   4.65922  2       36
siesta:     -8.90424   1.67130   4.65887  2       37
siesta:      9.18626  -0.36250   4.65906  2       38
siesta:     -1.51119   8.65909   4.65951  2       39
siesta:      3.78450   8.14896   4.66643  2       40
siesta:     -4.04190   7.78683   4.66054  2       41
siesta:      8.93317   2.30079   4.66221  2       42
siesta:      6.10111   6.79358   4.67021  2       43
siesta:      4.40869  -1.63383   9.16793  1       44
siesta:      1.68964  -8.71723   6.97429  2       45
siesta:     -5.88908  -6.76396   6.97320  2       46
siesta:     -8.81837  -2.32366   6.96785  2       47
siesta:     -9.10724   0.33695   6.96476  2       48
siesta:     -3.58276  -8.12744   6.97301  2       49
siesta:     -7.15008   5.26211   6.97086  2       50
siesta:      4.22494  -7.86460   6.97314  2       51
siesta:      9.02753  -1.70594   6.97085  2       52
siesta:     -5.19874   7.09176   6.97266  2       53
siesta:      8.08743  -4.21536   6.97000  2       54
siesta:     -0.17433   8.86636   6.97082  2       55
siesta:      2.49044   8.56138   6.97560  2       56
siesta:      8.49566   3.57280   6.97626  2       57
siesta:      7.04193   5.81815   6.97917  2       58
siesta:     -0.45124   4.28290   8.08562  1       59
siesta:     -3.65296  -2.57747   6.01808  1       60
siesta:     -8.33605  -3.58389   9.28379  2       61
siesta:     -8.95745   1.68116   9.27731  2       62
siesta:      9.21448  -0.36813   9.28492  2       63
siesta:     -6.85246  -5.81179   9.28686  2       64
siesta:      8.93379   2.29548   9.28491  2       65
siesta:     -7.94227   4.16327   9.27853  2       66
siesta:      5.38278  -7.17387   9.28446  2       67
siesta:     -2.30538  -8.55818   9.28461  2       68
siesta:      0.35153  -8.86011   9.28431  2       69
siesta:      7.34459  -5.34787   9.28447  2       70
siesta:     -4.04485   7.79349   9.28178  2       71
siesta:     -1.52221   8.70988   9.28403  2       72
siesta:      3.76628   8.12479   9.28471  2       73
siesta:      6.05320   6.73842   9.28493  2       74
siesta:      9.02592  -1.70790  11.59961  2       75
siesta:      8.08796  -4.21797  11.59955  2       76
siesta:      8.48377   3.56432  11.59514  2       77
siesta:      1.69310  -8.72229  11.59497  2       78
siesta:      2.48576   8.55100  11.59428  2       79
siesta:      4.23092  -7.87333  11.59578  2       80
siesta:     -5.87669  -6.74715  11.59414  2       81
siesta:      7.02414   5.80499  11.59390  2       82
siesta:     -0.17557   8.83578  11.59549  2       83
siesta:     -8.82450  -2.32263  11.59510  2       84
siesta:     -9.17246   0.34164  11.59274  2       85
siesta:     -7.17581   5.27886  11.59121  2       86
siesta:     -3.58613  -8.13240  11.59350  2       87
siesta:     -5.19516   7.08412  11.59435  2       88
siesta:     -4.67260   0.94284  11.63082  1       89
siesta:      6.06287   6.75219  13.90092  2       90
siesta:      7.32882  -5.33852  13.90900  2       91
siesta:      3.76851   8.12977  13.90180  2       92
siesta:      9.19268  -0.36708  13.91095  2       93
siesta:      8.93113   2.29624  13.90719  2       94
siesta:      0.35096  -8.86441  13.90452  2       95
siesta:      5.39244  -7.18756  13.90612  2       96
siesta:     -1.51424   8.66527  13.90441  2       97
siesta:     -4.04657   7.79104  13.90451  2       98
siesta:     -2.31034  -8.57039  13.90299  2       99
siesta:     -8.33989  -3.58864  13.90273  2      100
siesta:     -6.85303  -5.81509  13.90182  2      101
siesta:     -7.95194   4.17262  13.90644  2      102
siesta:     -8.96028   1.68282  13.90737  2      103
siesta:      7.05360   5.83622  16.20985  2      104
siesta:      8.49146   3.57596  16.21361  2      105
siesta:      8.06532  -4.20759  16.21726  2      106
siesta:      9.00470  -1.70169  16.21825  2      107
siesta:     -3.58729  -8.13735  16.21334  2      108
siesta:      4.23220  -7.87818  16.21508  2      109
siesta:      2.49289   8.55689  16.21138  2      110
siesta:      1.69142  -8.72425  16.21469  2      111
siesta:     -5.87942  -6.75285  16.21224  2      112
siesta:     -0.17135   8.81553  16.21353  2      113
siesta:     -8.80432  -2.32421  16.21469  2      114
siesta:     -5.20168   7.09765  16.21251  2      115
siesta:     -9.10431   0.33639  16.21730  2      116
siesta:     -7.16269   5.27417  16.21398  2      117

siesta: System type = chain     

initatomlists: Number of atoms, orbitals, and projectors:    117  1481  1837

coxmol: Writing XMOL coordinates into file C112.xyz                                                        

siesta: ******************** Simulation parameters ****************************
siesta:
siesta: The following are some of the parameters of the simulation.
siesta: A complete list of the parameters used, including default values,
siesta: can be found in file out.fdf
siesta:
redata: Non-Collinear-spin run           =     F
redata: SpinPolarized (Up/Down) run      =     T
redata: Number of spin components        =     2
redata: Long output                      =     F
redata: Number of Atomic Species         =        2
redata: Charge density info will appear in .RHO file
redata: Write Mulliken Pop.              =     Atomic and Orbital charges
redata: Mesh Cutoff                      =   200.0000  Ry
redata: Net charge of the system         =     0.0000 |e|
redata: Min. number of SCF Iter          =        0
redata: Max. number of SCF Iter          =      150
redata: Mix DM or H after convergence    =     F
redata: Recompute H after scf cycle      =     F
redata: Performing Pulay mixing using    =     4 iterations
redata: Mix DM in first SCF step ?       =     F
redata: Write Pulay info on disk?        =     F
redata: Discard 1st Pulay DM after  kick =     F
redata: New DM Mixing Weight             =     0.3000
redata: New DM Occupancy tolerance       = 0.000000000001
redata: No kicks to SCF
redata: DM Mixing Weight for Kicks       =     0.5000
redata: DM Tolerance for SCF             =     0.000100
redata: Require (free) Energy convergence in SCF =     F
redata: DM (free)Energy tolerance for SCF =     0.000010 eV
redata: Require Harris convergence for SCF =     F
redata: DM Harris energy tolerance for SCF =     0.000010 eV
redata: Antiferro initial spin density   =     F
redata: Using Saved Data (generic)   =     F
redata: Use continuation files for DM    =     T
redata: Neglect nonoverlap interactions  =     F
redata: Method of Calculation            =     Diagonalization
redata: Divide and Conquer               =     T
redata: Electronic Temperature           =     0.0019  Ry
redata: Fix the spin of the system       =     F
redata: Dynamics option                  =     CG coord. optimization
redata: Variable cell                    =     F
redata: Use continuation files for CG    =     F
redata: Max atomic displ per move        =     0.2835  Bohr
redata: Maximum number of CG moves       =      320
redata: Force tolerance                  =     0.0016  Ry/Bohr
redata: ***********************************************************************
Total number of electrons:   453.000000
Total ionic charge:   453.000000

* ProcessorY, Blocksize:    6  24


* Orbital distribution balance (max,min):    48    24

k-point displ. along   1 input, could be:     0.50    0.00
k-point displ. along   2 input, could be:     0.50    0.00
 Kpoints in:           16 . Kpoints trimmed:           16

siesta: k-grid: Number of k-points =    16
siesta: k-grid: Cutoff (effective) =    48.903 Ang
siesta: k-grid: Supercell and displacements
siesta: k-grid:    1   0   0      0.500
siesta: k-grid:    0   1   0      0.500
siesta: k-grid:    0   0  32      0.500
Naive supercell factors:     1    1    3

superc: Internal auxiliary supercell:     1 x     1 x     3  =       3
superc: Number of atoms, orbitals, and projectors:    351   4443   5511

                     ====================================
                        Begin CG opt. move =      0

zmatrix: Z-matrix coordinates: (Ang ; rad )
zmatrix: (Fractional coordinates have been converted to cartesian)
cartesian block    1 (   117 atoms)
      0.18556500     -4.69139400      0.02270200
     -1.22205700     -4.53241000      0.02158700
      2.85062200     -3.80092800      0.02267900
      4.85842800     -0.19215200      0.02391700
      3.87327600     -2.82086300      0.02305300
      4.72491900      1.21805800      0.02276200
      3.23298800      3.60181900      0.01951400
     -3.62997200     -3.08369600      0.01967700
      2.00636600      4.32115400      0.01950100
     -4.41128000     -1.90146500      0.01976700
     -4.71073100      0.88469300      0.02159300
     -4.19360800      2.20359200      0.02184700
     -0.79842700      4.57751800      0.02146500
     -2.13862700      4.11939500      0.02206500
      1.62792300      2.01110400      1.25718300
      2.23905400     -4.16794400      1.24514600
      0.89458700     -4.61431900      1.24529100
     -1.89907000     -4.30494300      1.24384900
      4.26788900     -2.22585200      1.24484800
     -3.11507000     -3.57861900      1.24269800
     -4.65383800     -1.22976800      1.24180200
     -2.74955000      3.75315700      1.24435000
     -4.80306200      0.17691200      1.24333000
     -3.78411800      2.78631000      1.24467100
      4.76685900     -0.90039000      1.24484300
      4.50076200      1.89762700      1.24521000
      3.75764700      3.10994500      1.24496100
     -0.08897000      4.66176200      1.24322800
      1.32516000      4.54317400      1.24362300
     -3.64192700     -3.09337200      2.46599400
      2.85002400     -3.79825500      2.46758400
     -1.22177000     -4.53137000      2.46673600
      0.18519000     -4.68783100      2.46749000
     -4.18877700      2.19933500      2.46650800
      3.87505500     -2.82177000      2.46587400
     -4.42041600     -1.90448800      2.46555100
     -4.71192000      0.88441200      2.46536500
      4.86115900     -0.19182800      2.46546800
     -0.79968900      4.58218900      2.46570800
      2.00267200      4.31224300      2.46936600
     -2.13887900      4.12061300      2.46625100
      4.72722700      1.21752600      2.46713400
      3.22856900      3.59500800      2.47136900
      2.33297700     -0.86458500      4.85145600
      0.89411600     -4.61295900      3.69063400
     -3.11636500     -3.57933300      3.69005700
     -4.66647900     -1.22962600      3.68722700
     -4.81934100      0.17830700      3.68558900
     -1.89591200     -4.30085500      3.68995400
     -3.78365700      2.78458800      3.68881900
      2.23574300     -4.16176400      3.69002400
      4.77716100     -0.90274600      3.68881100
     -2.75105100      3.75279500      3.68977100
      4.27968100     -2.23067400      3.68836400
     -0.09225100      4.69187300      3.68879700
      1.31788100      4.53048600      3.69132800
      4.49571000      1.89064300      3.69167600
      3.72642600      3.07883300      3.69321600
     -0.23878600      2.26641100      4.27872400
     -1.93306500     -1.36393900      3.18462700
     -4.41124600     -1.89651000      4.91276700
     -4.74007500      0.88963200      4.90933900
      4.87608900     -0.19480600      4.91336500
     -3.62616500     -3.07546700      4.91439200
      4.72755700      1.21471700      4.91336300
     -4.20286900      2.20310800      4.90998700
      2.84844600     -3.79624600      4.91312200
     -1.21995500     -4.52879300      4.91320000
      0.18602200     -4.68856800      4.91304100
      3.88658700     -2.82997200      4.91312800
     -2.14044200      4.12413600      4.91170600
     -0.80551800      4.60906700      4.91289500
      1.99302800      4.29945100      4.91325300
      3.20321300      3.56581800      4.91337200
      4.77630800     -0.90378000      6.13824600
      4.27996500     -2.23205100      6.13821600
      4.48941600      1.88615400      6.13588000
      0.89595000     -4.61563500      6.13579100
      1.31540500      4.52499500      6.13542600
      2.23890500     -4.16638400      6.13621800
     -3.10980900     -3.57043700      6.13535000
      3.71701300      3.07186900      6.13522300
     -0.09290700      4.67568900      6.13606500
     -4.66972400     -1.22908400      6.13585900
     -4.85385400      0.18078800      6.13461400
     -3.79727600      2.79345100      6.13380200
     -1.89769900     -4.30348100      6.13501300
     -2.74916100      3.74875300      6.13546400
     -2.47263300      0.49893100      6.15476400
      3.20832900      3.57310500      7.35604900
      3.87824500     -2.82502000      7.36032500
      1.99420800      4.30208500      7.35651100
      4.86455300     -0.19424800      7.36135600
      4.72615000      1.21511900      7.35936700
      0.18571900     -4.69084200      7.35795000
      2.85355500     -3.80349000      7.35879800
     -0.80129900      4.58545900      7.35789200
     -2.14135200      4.12284100      7.35794600
     -1.22257900     -4.53525400      7.35714400
     -4.41327600     -1.89902500      7.35700700
     -3.62646700     -3.07721300      7.35652100
     -4.20798300      2.20805500      7.35896600
     -4.74157500      0.89050800      7.35946200
      3.73260200      3.08839400      8.57787900
      4.49348700      1.89231700      8.57987000
      4.26798400     -2.22656000      8.58180300
      4.76507900     -0.90049500      8.58232700
     -1.89831200     -4.30610100      8.57972600
      2.23958300     -4.16895400      8.58064700
      1.31918100      4.52811000      8.57869100
      0.89506000     -4.61667200      8.58044200
     -3.11125500     -3.57345500      8.57914500
     -0.09067400      4.66497400      8.57982600
     -4.65904500     -1.22991700      8.58044000
     -2.75261100      3.75591200      8.57928600
     -4.81779100      0.17801100      8.58182100
     -3.79033300      2.79096900      8.58006400


Z-matrix Symbol Section -------
Variables
Constants
------------ End of Z-matrix Information

                     ====================================

superc: Internal auxiliary supercell:     1 x     1 x     3  =       3
superc: Number of atoms, orbitals, and projectors:    351   4443   5511

outcell: Unit cell vectors (Ang):
       97.806123    0.000000    0.000000
        0.000000   97.806123    0.000000
        0.000000    0.000000    9.780612

outcell: Cell vector modules (Ang)   :   97.806123   97.806123    9.780612
outcell: Cell angles (23,13,12) (deg):     90.0000     90.0000     90.0000
outcell: Cell volume (Ang**3)        :  93561.7055
New_DM. Step:     1
Initializing Density Matrix...

initdm: Initial spin polarization (Qup-Qdown) =  229.000000
New grid distribution:   1
           1       1:  432    1:   72    1:    6
           2       1:  432    1:   72    7:   12
           3       1:  432    1:   72   13:   18
           4       1:  432    1:   72   19:   24
           5       1:  432    1:   72   25:   30
           6       1:  432    1:   72   31:   35
           7       1:  432    1:   72   36:   40
           8       1:  432    1:   72   41:   45
           9       1:  432   73:  144    1:    6
          10       1:  432   73:  144    7:   12
          11       1:  432   73:  144   13:   18
          12       1:  432   73:  144   19:   24
          13       1:  432   73:  144   25:   30
          14       1:  432   73:  144   31:   35
          15       1:  432   73:  144   36:   40
          16       1:  432   73:  144   41:   45
          17       1:  432  145:  216    1:    6
          18       1:  432  145:  216    7:   12
          19       1:  432  145:  216   13:   18
          20       1:  432  145:  216   19:   24
          21       1:  432  145:  216   25:   30
          22       1:  432  145:  216   31:   35
          23       1:  432  145:  216   36:   40
          24       1:  432  145:  216   41:   45
          25       1:  432  217:  288    1:    6
          26       1:  432  217:  288    7:   12
          27       1:  432  217:  288   13:   18
          28       1:  432  217:  288   19:   24
          29       1:  432  217:  288   25:   30
          30       1:  432  217:  288   31:   35
          31       1:  432  217:  288   36:   40
          32       1:  432  217:  288   41:   45
          33       1:  432  289:  360    1:    6
          34       1:  432  289:  360    7:   12
          35       1:  432  289:  360   13:   18
          36       1:  432  289:  360   19:   24
          37       1:  432  289:  360   25:   30
          38       1:  432  289:  360   31:   35
          39       1:  432  289:  360   36:   40
          40       1:  432  289:  360   41:   45
          41       1:  432  361:  432    1:    6
          42       1:  432  361:  432    7:   12
          43       1:  432  361:  432   13:   18
          44       1:  432  361:  432   19:   24
          45       1:  432  361:  432   25:   30
          46       1:  432  361:  432   31:   35
          47       1:  432  361:  432   36:   40
          48       1:  432  361:  432   41:   45

InitMesh: MESH =   864 x   864 x    90 =    67184640
InitMesh: (bp) =   432 x   432 x    45 =     8398080
InitMesh: Mesh cutoff (required, used) =   200.000   215.674 Ry
ExtMesh (bp) on 0 =   528 x   168 x   106 =     9402624
New grid distribution:   2
           1      31:  417   16:   28    1:   45
           2      16:   30   17:   28    1:   45
           3      11:   30   14:   16    1:   45
           4      18:   22    5:   13    1:   45
           5      31:  410    5:   12    1:   45
           6     421:  432  423:  432    1:   45
           7       1:    5   18:   28    1:   45
           8      12:   17    7:   13    1:   45
           9     166:  423   29:  412    1:   45
          10       1:   12  423:  432    1:   45
          11       6:   10   18:   28    1:   45
          12      18:   22  425:  432    1:   45
          13      10:  165   29:  412    1:   45
          14     416:  432    1:    6    1:   45
          15     428:  432   18:   28    1:   45
          16     412:  416  425:  432    1:   45
          17     424:  432   29:  410    1:   45
          18       1:   17    1:    6    1:   45
          19     423:  427   18:   28    1:   45
          20     417:  420  423:  432    1:   45
          21       1:    9   29:  409    1:   45
          22       1:   11    7:   13    1:   45
          23      18:   30    1:    4    1:   45
          24       1:   10   14:   17    1:   45
          25      31:  415    1:    4    1:   45
          26      23:   30    5:   13    1:   45
          27       5:    9  410:  419    1:   45
          28       1:    4  410:  419    1:   45
          29     166:  416  420:  424    1:   45
          30     422:  432    7:   12    1:   45
          31     423:  432   13:   17    1:   45
          32     411:  415    5:   12    1:   45
          33      31:  422   13:   15    1:   45
          34     418:  422   16:   28    1:   45
          35     417:  432  420:  422    1:   45
          36     424:  427  411:  419    1:   45
          37      23:  165  425:  432    1:   45
          38      11:   15   17:   28    1:   45
          39     428:  432  411:  419    1:   45
          40     416:  421    7:   12    1:   45
          41     166:  411  425:  432    1:   45
          42      16:  165  413:  419    1:   45
          43       1:   17  420:  422    1:   45
          44     418:  423  413:  419    1:   45
          45     166:  417  413:  419    1:   45
          46      18:  165  420:  424    1:   45
          47      13:   17  423:  432    1:   45
          48      10:   15  413:  419    1:   45
New grid distribution:   3
           1     177:  406    6:   16    1:   45
           2      28:  176    6:   16    1:   45
           3       1:   18  417:  422    1:   45
           4      10:   18    7:   16    1:   45
           5     196:  406  423:  432    1:   45
           6     177:  417   17:   22    1:   45
           7       1:   18    1:    6    1:   45
           8     418:  432   17:   22    1:   45
           9     177:  376   23:  201    1:   45
          10      15:   23   22:  201    1:   45
          11     416:  432  417:  422    1:   45
          12     416:  424  423:  432    1:   45
          13      24:  176   22:  201    1:   45
          14     418:  425   23:  201    1:   45
          15     416:  432    1:    6    1:   45
          16     416:  424    7:   16    1:   45
          17     377:  417   23:  201    1:   45
          18     426:  432   23:  201    1:   45
          19      19:   27    6:   16    1:   45
          20      19:   27  423:  432    1:   45
          21      28:  195  423:  432    1:   45
          22       1:    7   24:  201    1:   45
          23     407:  415    6:   16    1:   45
          24      10:   18  423:  432    1:   45
          25     196:  417  202:  367    1:   45
          26       8:   14   24:  201    1:   45
          27       1:   14   17:   23    1:   45
          28       9:   15  405:  416    1:   45
          29      16:  195  202:  398    1:   45
          30     177:  415    1:    5    1:   45
          31     418:  425  405:  416    1:   45
          32     426:  432  405:  416    1:   45
          33     418:  432  202:  404    1:   45
          34      15:  176   17:   21    1:   45
          35       1:    8  405:  416    1:   45
          36     425:  432  423:  432    1:   45
          37       1:   15  202:  404    1:   45
          38      19:  176    1:    5    1:   45
          39       1:    9    7:   16    1:   45
          40     425:  432    7:   16    1:   45
          41     196:  410  368:  416    1:   45
          42     196:  415  417:  422    1:   45
          43     411:  417  368:  416    1:   45
          44     407:  415  423:  432    1:   45
          45      22:  195  399:  416    1:   45
          46      19:  195  417:  422    1:   45
          47      16:   21  399:  416    1:   45
          48       1:    9  423:  432    1:   45
Setting up quadratic distribution...
ExtMesh (bp) on 0 =   483 x   109 x   145 =     7633815
PhiOnMesh: Number of (b)points on node 0 =               226395
PhiOnMesh: nlist on node 0 =               432644

stepf: Fermi-Dirac step function

siesta: Program's energy decomposition (eV):
siesta: Ebs     =     -7630.821096
siesta: Eions   =     35455.844120
siesta: Ena     =     11784.358591
siesta: Ekin    =     10060.600452
siesta: Enl     =      1115.510226
siesta: DEna    =         0.000007
siesta: DUscf   =         0.000000
siesta: DUext   =         0.000000
siesta: Exc     =     -5334.393880
siesta: eta*DQ  =         0.000000
siesta: Emadel  =         0.000000
siesta: Emeta   =         0.000000
siesta: Emolmec =         0.000000
siesta: Ekinion =         0.000000
siesta: Eharris =    -17270.112348
siesta: Etot    =    -17829.768724
siesta: FreeEng =    -17829.821161

   scf: iscf   Eharris(eV)      E_KS(eV)   FreeEng(eV)    dDmax  Ef(eV)
   scf:    1   -17270.1123   -17829.7687   -17829.8212  0.94638 -7.0815
timer: Routine,Calls,Time,% =    IterSCF     1     113.877  84.97
   scf:    2   -17432.4567   -17379.3231   -17379.3736  0.68213 -5.6239
   scf:    3   -17414.7887   -17407.2646   -17407.2899  0.23429 -4.1786
   scf:    4   -17414.4178   -17402.3937   -17402.4129  0.14209 -4.7224
   scf:    5   -17416.8350   -17404.4697   -17404.5027  0.14957 -5.2326
   scf:    6   -17414.4193   -17405.0772   -17405.0968  0.05915 -4.9645
   scf:    7   -17414.0943   -17407.5509   -17407.5719  0.03189 -4.9651
   scf:    8   -17413.8603   -17408.8882   -17408.9202  0.01767 -4.9201
   scf:    9   -17413.8680   -17410.1526   -17410.1812  0.01380 -4.9208
   scf:   10   -17413.8579   -17411.8151   -17411.8452  0.01012 -4.9141
   scf:   11   -17413.9124   -17413.0289   -17413.0584  0.01422 -4.9124
   scf:   12   -17413.8471   -17413.3344   -17413.3661  0.00975 -4.9052
   scf:   13   -17413.8309   -17413.1690   -17413.1995  0.00562 -4.9092
   scf:   14   -17413.8163   -17413.3102   -17413.3422  0.00241 -4.9033
   scf:   15   -17413.8159   -17413.4539   -17413.4857  0.00214 -4.9035
   scf:   16   -17413.8176   -17413.5606   -17413.5922  0.00279 -4.9036
   scf:   17   -17413.8155   -17413.6926   -17413.7245  0.00118 -4.9022
   scf:   18   -17413.8160   -17413.8113   -17413.8434  0.00155 -4.9011
   scf:   19   -17413.8152   -17413.7837   -17413.8156  0.00039 -4.9021
   scf:   20   -17413.8151   -17413.7812   -17413.8131  0.00023 -4.9018
   scf:   21   -17413.8151   -17413.7999   -17413.8319  0.00019 -4.9018
   scf:   22   -17413.8151   -17413.7957   -17413.8276  0.00029 -4.9019
   scf:   23   -17413.8151   -17413.8090   -17413.8409  0.00008 -4.9019

SCF Convergence by dMax criterion
max |DM_out - DM_in|:     0.00008192
SCF cycle converged after   23 iterations

Using DM_out to compute the final energy and forces

siesta: E_KS(eV) =           -17413.8150

siesta: E_KS - E_eggbox =    -17413.8150

zmatrix: Atomic forces (eV/Ang ; eV/rad )
zmatrix: (No information if symbols are used)
cartesian    1 (   117 atoms)
     1    0.011604    0.018037   -0.006994
     2    0.003267   -0.018609    0.005243
     3    0.005281    0.000545    0.003330
     4    0.009534    0.016828   -0.011285
     5   -0.005196   -0.016463   -0.000166
     6   -0.010564   -0.006262    0.002779
     7    0.010316   -0.011338   -0.002963
     8   -0.012013   -0.017708    0.003248
     9    0.001909    0.011048   -0.005304
    10    0.004733    0.007756    0.010694
    11    0.008147    0.007743   -0.000765
    12    0.001218   -0.013429    0.011389
    13    0.012909   -0.004993    0.008784
    14    0.002587    0.010401   -0.011811
    15    0.003402   -0.008097    0.001259
    16   -0.006794    0.011092    0.006297
    17    0.007069   -0.013188   -0.010662
    18    0.004506    0.001973    0.005280
    19    0.008533   -0.003763   -0.017587
    20   -0.001906    0.006529   -0.013179
    21    0.000977   -0.006919    0.005143
    22    0.003120   -0.014732    0.002321
    23   -0.004664    0.008361   -0.004764
    24   -0.021604    0.026512   -0.011148
    25   -0.016689    0.005780    0.018230
    26   -0.004063   -0.012153   -0.005181
    27    0.001554    0.000820    0.009373
    28   -0.004334   -0.005774   -0.020229
    29   -0.004339    0.000084    0.010768
    30   -0.004864    0.006418   -0.023347
    31   -0.002404   -0.000549   -0.015755
    32    0.004514   -0.006149   -0.005675
    33    0.014767    0.011609    0.000268
    34    0.004066    0.006439   -0.006587
    35   -0.013530   -0.009609    0.018975
    36   -0.003318   -0.006494   -0.004252
    37    0.001926    0.004084   -0.001867
    38    0.019683    0.012032   -0.006007
    39   -0.003721   -0.014712   -0.012103
    40    0.011181    0.019532    0.003416
    41    0.006151    0.012525    0.007234
    42   -0.014974   -0.009385    0.012052
    43    0.003525    0.002417   -0.010914
    44    0.005912    0.013936   -0.037100
    45   -0.005018    0.024852   -0.018247
    46    0.000176   -0.025835    0.011874
    47    0.018073   -0.008551    0.003149
    48    0.039079    0.008766    0.013374
    49   -0.004020   -0.001034   -0.002261
    50   -0.005040    0.007503    0.005750
    51    0.009781   -0.011333    0.009584
    52   -0.004499    0.006546    0.008838
    53   -0.013492    0.031404   -0.002768
    54   -0.005153   -0.008824   -0.005829
    55    0.007897   -0.003268    0.005344
    56   -0.002708   -0.005432   -0.006081
    57   -0.030577   -0.024070   -0.008158
    58   -0.001051    0.018159   -0.003159
    59   -0.021551    0.002985    0.028809
    60    0.002221   -0.009908    0.026633
    61    0.017685   -0.007086    0.006497
    62    0.023189   -0.007358   -0.002004
    63   -0.013529   -0.002767   -0.000154
    64   -0.020952   -0.015688   -0.010790
    65   -0.011352    0.000633   -0.003128
    66   -0.009142    0.023865   -0.007183
    67    0.001872   -0.027967   -0.003916
    68    0.000767    0.001025    0.013525
    69   -0.001105    0.019799    0.008115
    70    0.005436   -0.022853   -0.006193
    71    0.000035   -0.001628    0.013283
    72   -0.009381    0.009281   -0.001940
    73    0.005063    0.028588    0.000151
    74    0.005766    0.027129    0.006531
    75    0.013530   -0.000955    0.000080
    76   -0.005061   -0.004775    0.016025
    77   -0.010101    0.005445    0.014380
    78   -0.011307    0.017388    0.005838
    79   -0.000396    0.017777    0.008233
    80   -0.005255   -0.002426    0.004164
    81    0.027869    0.012972    0.015339
    82    0.005524    0.002800    0.001497
    83    0.002767   -0.026264    0.024324
    84    0.009107    0.007998   -0.009317
    85    0.003722   -0.005781    0.002776
    86   -0.001307    0.005494    0.015145
    87    0.003099   -0.006377   -0.001788
    88    0.002972    0.004538   -0.011251
    89    0.016226    0.015385    0.002179
    90    0.017979    0.009102    0.021867
    91   -0.017768    0.004212    0.003104
    92   -0.000777   -0.003214   -0.007997
    93    0.000057    0.005894   -0.005340
    94   -0.017888   -0.002483   -0.011292
    95    0.003321   -0.004582    0.004227
    96   -0.018326    0.010277   -0.000756
    97    0.009806   -0.027309    0.010140
    98    0.007533    0.007468    0.001850
    99    0.010415    0.010519    0.005430
   100    0.014954    0.001795   -0.006665
   101   -0.003251   -0.007306    0.004757
   102   -0.006258   -0.012242   -0.004851
   103    0.002139    0.011649   -0.006848
   104   -0.003594   -0.018585   -0.013685
   105    0.001481    0.002643    0.007150
   106    0.011711   -0.009564    0.000226
   107    0.017940    0.003611   -0.019347
   108   -0.001169    0.002825   -0.008703
   109   -0.003423   -0.007523   -0.002760
   110   -0.004442    0.009905   -0.002841
   111   -0.003163   -0.006623    0.010120
   112    0.006943    0.004480    0.003970
   113   -0.002100   -0.009957    0.001118
   114   -0.012065    0.010953    0.001159
   115   -0.003417    0.000070    0.003477
   116    0.022274   -0.006698    0.007721
   117   -0.008413    0.009151    0.010935


Variable forces (eV/Ang ; eV/rad )

siesta: Atomic forces (eV/Ang):
     1    0.011604    0.018037   -0.006994
     2    0.003267   -0.018609    0.005243
     3    0.005281    0.000545    0.003330
     4    0.009534    0.016828   -0.011285
     5   -0.005196   -0.016463   -0.000166
     6   -0.010564   -0.006262    0.002779
     7    0.010316   -0.011338   -0.002963
     8   -0.012013   -0.017708    0.003248
     9    0.001909    0.011048   -0.005304
    10    0.004733    0.007756    0.010694
    11    0.008147    0.007743   -0.000765
    12    0.001218   -0.013429    0.011389
    13    0.012909   -0.004993    0.008784
    14    0.002587    0.010401   -0.011811
    15    0.003402   -0.008097    0.001259
    16   -0.006794    0.011092    0.006297
    17    0.007069   -0.013188   -0.010662
    18    0.004506    0.001973    0.005280
    19    0.008533   -0.003763   -0.017587
    20   -0.001906    0.006529   -0.013179
    21    0.000977   -0.006919    0.005143
    22    0.003120   -0.014732    0.002321
    23   -0.004664    0.008361   -0.004764
    24   -0.021604    0.026512   -0.011148
    25   -0.016689    0.005780    0.018230
    26   -0.004063   -0.012153   -0.005181
    27    0.001554    0.000820    0.009373
    28   -0.004334   -0.005774   -0.020229
    29   -0.004339    0.000084    0.010768
    30   -0.004864    0.006418   -0.023347
    31   -0.002404   -0.000549   -0.015755
    32    0.004514   -0.006149   -0.005675
    33    0.014767    0.011609    0.000268
    34    0.004066    0.006439   -0.006587
    35   -0.013530   -0.009609    0.018975
    36   -0.003318   -0.006494   -0.004252
    37    0.001926    0.004084   -0.001867
    38    0.019683    0.012032   -0.006007
    39   -0.003721   -0.014712   -0.012103
    40    0.011181    0.019532    0.003416
    41    0.006151    0.012525    0.007234
    42   -0.014974   -0.009385    0.012052
    43    0.003525    0.002417   -0.010914
    44    0.005912    0.013936   -0.037100
    45   -0.005018    0.024852   -0.018247
    46    0.000176   -0.025835    0.011874
    47    0.018073   -0.008551    0.003149
    48    0.039079    0.008766    0.013374
    49   -0.004020   -0.001034   -0.002261
    50   -0.005040    0.007503    0.005750
    51    0.009781   -0.011333    0.009584
    52   -0.004499    0.006546    0.008838
    53   -0.013492    0.031404   -0.002768
    54   -0.005153   -0.008824   -0.005829
    55    0.007897   -0.003268    0.005344
    56   -0.002708   -0.005432   -0.006081
    57   -0.030577   -0.024070   -0.008158
    58   -0.001051    0.018159   -0.003159
    59   -0.021551    0.002985    0.028809
    60    0.002221   -0.009908    0.026633
    61    0.017685   -0.007086    0.006497
    62    0.023189   -0.007358   -0.002004
    63   -0.013529   -0.002767   -0.000154
    64   -0.020952   -0.015688   -0.010790
    65   -0.011352    0.000633   -0.003128
    66   -0.009142    0.023865   -0.007183
    67    0.001872   -0.027967   -0.003916
    68    0.000767    0.001025    0.013525
    69   -0.001105    0.019799    0.008115
    70    0.005436   -0.022853   -0.006193
    71    0.000035   -0.001628    0.013283
    72   -0.009381    0.009281   -0.001940
    73    0.005063    0.028588    0.000151
    74    0.005766    0.027129    0.006531
    75    0.013530   -0.000955    0.000080
    76   -0.005061   -0.004775    0.016025
    77   -0.010101    0.005445    0.014380
    78   -0.011307    0.017388    0.005838
    79   -0.000396    0.017777    0.008233
    80   -0.005255   -0.002426    0.004164
    81    0.027869    0.012972    0.015339
    82    0.005524    0.002800    0.001497
    83    0.002767   -0.026264    0.024324
    84    0.009107    0.007998   -0.009317
    85    0.003722   -0.005781    0.002776
    86   -0.001307    0.005494    0.015145
    87    0.003099   -0.006377   -0.001788
    88    0.002972    0.004538   -0.011251
    89    0.016226    0.015385    0.002179
    90    0.017979    0.009102    0.021867
    91   -0.017768    0.004212    0.003104
    92   -0.000777   -0.003214   -0.007997
    93    0.000057    0.005894   -0.005340
    94   -0.017888   -0.002483   -0.011292
    95    0.003321   -0.004582    0.004227
    96   -0.018326    0.010277   -0.000756
    97    0.009806   -0.027309    0.010140
    98    0.007533    0.007468    0.001850
    99    0.010415    0.010519    0.005430
   100    0.014954    0.001795   -0.006665
   101   -0.003251   -0.007306    0.004757
   102   -0.006258   -0.012242   -0.004851
   103    0.002139    0.011649   -0.006848
   104   -0.003594   -0.018585   -0.013685
   105    0.001481    0.002643    0.007150
   106    0.011711   -0.009564    0.000226
   107    0.017940    0.003611   -0.019347
   108   -0.001169    0.002825   -0.008703
   109   -0.003423   -0.007523   -0.002760
   110   -0.004442    0.009905   -0.002841
   111   -0.003163   -0.006623    0.010120
   112    0.006943    0.004480    0.003970
   113   -0.002100   -0.009957    0.001118
   114   -0.012065    0.010953    0.001159
   115   -0.003417    0.000070    0.003477
   116    0.022274   -0.006698    0.007721
   117   -0.008413    0.009151    0.010935
----------------------------------------
   Tot    0.087774    0.080793    0.073873
----------------------------------------
   Max    0.039079
   Res    0.011285    sqrt( Sum f_i^2 / 3N )
----------------------------------------
   Max    0.039079    constrained

Stress-tensor-Voigt (kbar):        0.02       -0.00       -0.39        0.00       -0.00        0.01
(Free)E + p*V (eV/cell)   -17406.4481
Target enthalpy (eV/cell)   -17413.8469
 
mulliken: Atomic and Orbital Populations:

mulliken: Spin UP 

Species: Li                  
Atom  Qatom  Qorb
               2s      2s      2Ppy    2Ppz    2Ppx    
  15  0.080   0.039   0.015  -0.000   0.023   0.003
  44  0.109   0.073   0.013   0.000  -0.001   0.024
  59  0.216   0.117   0.040   0.070  -0.002  -0.008
  60  0.148   0.093   0.018   0.018   0.007   0.011
  89  0.151   0.082   0.021  -0.010   0.024   0.034

Species: C                   
Atom  Qatom  Qorb
               2s      2s      2py     2pz     2px     2py     2pz     2px     
               2Pdxy   2Pdyz   2Pdz2   2Pdxz   2Pdx2-y2
   1  2.004   0.383   0.075   0.462   0.457   0.460   0.017   0.037   0.036
              0.013   0.013   0.019   0.026   0.007
   2  2.004   0.382   0.075   0.462   0.456   0.461   0.018   0.037   0.035
              0.011   0.014   0.019   0.025   0.008
   3  2.004   0.383   0.075   0.463   0.457   0.458   0.024   0.037   0.029
              0.007   0.019   0.019   0.021   0.012
   4  2.007   0.382   0.075   0.459   0.457   0.465   0.036   0.036   0.017
              0.013   0.026   0.019   0.013   0.007
   5  2.004   0.383   0.075   0.459   0.456   0.464   0.028   0.037   0.025
              0.007   0.020   0.019   0.019   0.012
   6  2.014   0.383   0.075   0.463   0.457   0.467   0.034   0.036   0.017
              0.012   0.026   0.019   0.015   0.009
   7  2.033   0.384   0.073   0.470   0.462   0.475   0.021   0.034   0.026
              0.010   0.019   0.020   0.023   0.015
   8  2.006   0.382   0.075   0.464   0.458   0.460   0.028   0.037   0.024
              0.007   0.021   0.019   0.018   0.013
   9  2.031   0.385   0.073   0.479   0.463   0.462   0.017   0.035   0.031
              0.012   0.018   0.019   0.024   0.012
  10  2.006   0.381   0.075   0.460   0.457   0.466   0.031   0.037   0.021
              0.010   0.023   0.019   0.016   0.011
  11  2.005   0.381   0.075   0.460   0.456   0.465   0.034   0.037   0.018
              0.012   0.025   0.019   0.014   0.008
  12  2.006   0.382   0.075   0.463   0.458   0.460   0.032   0.037   0.021
              0.009   0.023   0.019   0.016   0.011
  13  2.010   0.383   0.075   0.467   0.456   0.462   0.018   0.037   0.034
              0.013   0.014   0.019   0.025   0.008
  14  2.007   0.382   0.075   0.462   0.457   0.463   0.020   0.037   0.033
              0.009   0.015   0.019   0.024   0.011
  16  2.004   0.382   0.075   0.461   0.457   0.462   0.020   0.037   0.033
              0.009   0.015   0.019   0.024   0.011
  17  2.005   0.383   0.075   0.463   0.457   0.460   0.018   0.037   0.035
              0.012   0.014   0.019   0.025   0.008
  18  2.011   0.383   0.075   0.467   0.460   0.458   0.020   0.036   0.032
              0.010   0.016   0.019   0.023   0.011
  19  2.006   0.382   0.075   0.463   0.458   0.460   0.032   0.037   0.021
              0.009   0.024   0.019   0.016   0.011
  20  2.015   0.383   0.075   0.465   0.459   0.465   0.023   0.036   0.029
              0.008   0.019   0.019   0.022   0.014
  21  2.013   0.382   0.075   0.463   0.458   0.466   0.035   0.036   0.017
              0.012   0.026   0.019   0.015   0.009
  22  2.007   0.382   0.075   0.464   0.457   0.460   0.024   0.037   0.028
              0.008   0.018   0.019   0.021   0.013
  23  2.008   0.382   0.075   0.460   0.458   0.464   0.036   0.036   0.017
              0.013   0.026   0.019   0.014   0.008
  24  2.006   0.382   0.075   0.459   0.457   0.465   0.027   0.037   0.025
              0.007   0.020   0.019   0.019   0.013
  25  2.008   0.383   0.075   0.461   0.457   0.465   0.034   0.036   0.018
              0.012   0.025   0.019   0.014   0.008
  26  2.022   0.382   0.074   0.458   0.462   0.477   0.032   0.035   0.018
              0.012   0.024   0.019   0.017   0.013
  27  2.056   0.389   0.071   0.481   0.465   0.485   0.025   0.033   0.019
              0.010   0.022   0.019   0.021   0.017
  28  2.017   0.382   0.075   0.471   0.460   0.460   0.016   0.036   0.035
              0.015   0.014   0.020   0.026   0.008
  29  2.042   0.385   0.073   0.486   0.461   0.469   0.013   0.034   0.032
              0.014   0.017   0.019   0.026   0.011
  30  2.042   0.385   0.073   0.478   0.465   0.473   0.025   0.034   0.022
              0.010   0.022   0.020   0.020   0.016
  31  2.008   0.383   0.075   0.465   0.459   0.458   0.024   0.036   0.029
              0.008   0.019   0.019   0.021   0.013
  32  2.016   0.383   0.074   0.470   0.457   0.463   0.016   0.036   0.034
              0.012   0.015   0.019   0.026   0.010
  33  2.007   0.382   0.075   0.465   0.458   0.459   0.017   0.036   0.036
              0.013   0.014   0.019   0.026   0.007
  34  2.007   0.382   0.075   0.463   0.458   0.461   0.032   0.037   0.021
              0.009   0.023   0.019   0.016   0.012
  35  2.010   0.382   0.075   0.462   0.458   0.465   0.027   0.036   0.025
              0.008   0.021   0.019   0.019   0.013
  36  2.033   0.383   0.073   0.463   0.463   0.481   0.030   0.034   0.018
              0.012   0.024   0.019   0.018   0.013
  37  2.011   0.382   0.075   0.462   0.457   0.467   0.033   0.036   0.018
              0.013   0.025   0.019   0.015   0.009
  38  2.011   0.381   0.075   0.460   0.459   0.467   0.036   0.036   0.016
              0.014   0.026   0.019   0.014   0.008
  39  2.021   0.383   0.074   0.471   0.460   0.463   0.017   0.036   0.034
              0.014   0.016   0.019   0.026   0.009
  40  2.033   0.383   0.073   0.478   0.464   0.463   0.018   0.034   0.031
              0.013   0.018   0.020   0.025   0.013
  41  2.015   0.383   0.075   0.463   0.461   0.465   0.020   0.036   0.032
              0.010   0.016   0.019   0.024   0.012
  42  2.015   0.382   0.075   0.464   0.459   0.467   0.034   0.036   0.017
              0.012   0.026   0.019   0.015   0.010
  43  2.031   0.383   0.073   0.469   0.463   0.474   0.022   0.034   0.026
              0.009   0.020   0.020   0.023   0.016
  45  2.009   0.383   0.075   0.465   0.458   0.460   0.018   0.036   0.034
              0.013   0.014   0.019   0.025   0.008
  46  2.041   0.384   0.073   0.479   0.462   0.475   0.020   0.034   0.026
              0.009   0.020   0.019   0.022   0.016
  47  2.030   0.382   0.074   0.468   0.461   0.476   0.033   0.035   0.015
              0.013   0.025   0.020   0.016   0.011
  48  2.017   0.381   0.075   0.461   0.461   0.467   0.035   0.036   0.016
              0.015   0.026   0.020   0.015   0.009
  49  2.020   0.383   0.074   0.474   0.462   0.457   0.018   0.035   0.032
              0.012   0.017   0.019   0.024   0.012
  50  2.011   0.381   0.075   0.459   0.457   0.468   0.027   0.036   0.025
              0.008   0.021   0.020   0.019   0.014
  51  2.012   0.383   0.075   0.466   0.457   0.463   0.019   0.036   0.033
              0.009   0.016   0.019   0.024   0.012
  52  2.028   0.383   0.074   0.462   0.462   0.477   0.033   0.035   0.016
              0.014   0.025   0.019   0.017   0.010
  53  2.022   0.383   0.074   0.469   0.458   0.468   0.023   0.036   0.026
              0.009   0.019   0.019   0.022   0.014
  54  2.030   0.384   0.074   0.470   0.463   0.471   0.030   0.035   0.019
              0.011   0.024   0.019   0.018   0.014
  55  2.044   0.384   0.073   0.487   0.464   0.468   0.013   0.034   0.033
              0.016   0.017   0.020   0.026   0.009
  56  2.026   0.381   0.074   0.473   0.462   0.464   0.016   0.035   0.034
              0.014   0.016   0.020   0.025   0.011
  57  2.013   0.381   0.075   0.461   0.459   0.468   0.031   0.036   0.020
              0.011   0.023   0.019   0.017   0.011
  58  2.013   0.381   0.075   0.464   0.459   0.463   0.028   0.036   0.023
              0.008   0.021   0.020   0.019   0.014
  61  2.024   0.383   0.074   0.464   0.462   0.470   0.030   0.035   0.020
              0.012   0.024   0.020   0.018   0.012
  62  2.028   0.382   0.074   0.463   0.461   0.479   0.032   0.035   0.016
              0.014   0.025   0.020   0.017   0.011
  63  2.038   0.384   0.073   0.468   0.461   0.483   0.033   0.035   0.013
              0.016   0.026   0.019   0.016   0.009
  64  2.019   0.382   0.074   0.468   0.462   0.462   0.027   0.035   0.024
              0.009   0.022   0.020   0.020   0.015
  65  2.016   0.381   0.075   0.464   0.459   0.467   0.034   0.036   0.017
              0.013   0.025   0.019   0.015   0.010
  66  2.024   0.383   0.074   0.469   0.462   0.466   0.030   0.035   0.020
              0.011   0.024   0.019   0.018   0.014
  67  2.020   0.383   0.074   0.474   0.461   0.458   0.022   0.036   0.029
              0.009   0.019   0.019   0.021   0.015
  68  2.009   0.382   0.075   0.466   0.457   0.461   0.017   0.037   0.035
              0.012   0.014   0.019   0.026   0.009
  69  2.008   0.383   0.075   0.464   0.458   0.460   0.017   0.036   0.036
              0.013   0.013   0.019   0.026   0.007
  70  2.047   0.386   0.072   0.478   0.463   0.481   0.023   0.034   0.022
              0.010   0.023   0.019   0.020   0.016
  71  2.028   0.383   0.074   0.470   0.462   0.469   0.019   0.035   0.030
              0.012   0.018   0.019   0.024   0.014
  72  2.045   0.385   0.072   0.489   0.464   0.467   0.014   0.034   0.032
              0.016   0.017   0.019   0.025   0.010
  73  2.020   0.383   0.074   0.470   0.458   0.466   0.020   0.036   0.030
              0.012   0.017   0.019   0.024   0.011
  74  2.009   0.382   0.075   0.459   0.457   0.467   0.024   0.037   0.028
              0.008   0.018   0.019   0.022   0.014
  75  2.026   0.384   0.074   0.461   0.462   0.476   0.033   0.035   0.016
              0.014   0.025   0.019   0.017   0.010
  76  2.028   0.384   0.074   0.469   0.462   0.469   0.030   0.035   0.019
              0.011   0.024   0.019   0.018   0.014
  77  2.010   0.382   0.075   0.462   0.457   0.466   0.031   0.036   0.021
              0.010   0.023   0.019   0.017   0.011
  78  2.006   0.383   0.075   0.465   0.458   0.458   0.018   0.036   0.035
              0.012   0.014   0.019   0.025   0.008
  79  2.013   0.383   0.075   0.466   0.459   0.462   0.017   0.036   0.035
              0.013   0.015   0.019   0.025   0.009
  80  2.012   0.383   0.075   0.466   0.457   0.463   0.019   0.036   0.033
              0.009   0.016   0.019   0.024   0.012
  81  2.009   0.382   0.075   0.463   0.457   0.464   0.023   0.036   0.029
              0.008   0.018   0.019   0.021   0.013
  82  2.007   0.382   0.075   0.465   0.456   0.460   0.028   0.037   0.024
              0.007   0.021   0.019   0.018   0.013
  83  2.017   0.383   0.075   0.468   0.460   0.462   0.016   0.036   0.035
              0.014   0.015   0.019   0.026   0.008
  84  2.023   0.381   0.075   0.465   0.461   0.472   0.033   0.035   0.016
              0.014   0.025   0.019   0.016   0.011
[...]
    2.84844600   -3.79624600    4.91312200   2      67  C
   -1.21995500   -4.52879300    4.91320000   2      68  C
    0.18602200   -4.68856800    4.91304100   2      69  C
    3.88658700   -2.82997200    4.91312800   2      70  C
   -2.14044200    4.12413600    4.91170600   2      71  C
   -0.80551800    4.60906700    4.91289500   2      72  C
    1.99302800    4.29945100    4.91325300   2      73  C
    3.20321300    3.56581800    4.91337200   2      74  C
    4.77630800   -0.90378000    6.13824600   2      75  C
    4.27996500   -2.23205100    6.13821600   2      76  C
    4.48941600    1.88615400    6.13588000   2      77  C
    0.89595000   -4.61563500    6.13579100   2      78  C
    1.31540500    4.52499500    6.13542600   2      79  C
    2.23890500   -4.16638400    6.13621800   2      80  C
   -3.10980900   -3.57043700    6.13535000   2      81  C
    3.71701300    3.07186900    6.13522300   2      82  C
   -0.09290700    4.67568900    6.13606500   2      83  C
   -4.66972400   -1.22908400    6.13585900   2      84  C
   -4.85385400    0.18078800    6.13461400   2      85  C
   -3.79727600    2.79345100    6.13380200   2      86  C
   -1.89769900   -4.30348100    6.13501300   2      87  C
   -2.74916100    3.74875300    6.13546400   2      88  C
   -2.47263300    0.49893100    6.15476400   1      89  Li
    3.20832900    3.57310500    7.35604900   2      90  C
    3.87824500   -2.82502000    7.36032500   2      91  C
    1.99420800    4.30208500    7.35651100   2      92  C
    4.86455300   -0.19424800    7.36135600   2      93  C
    4.72615000    1.21511900    7.35936700   2      94  C
    0.18571900   -4.69084200    7.35795000   2      95  C
    2.85355500   -3.80349000    7.35879800   2      96  C
   -0.80129900    4.58545900    7.35789200   2      97  C
   -2.14135200    4.12284100    7.35794600   2      98  C
   -1.22257900   -4.53525400    7.35714400   2      99  C
   -4.41327600   -1.89902500    7.35700700   2     100  C
   -3.62646700   -3.07721300    7.35652100   2     101  C
   -4.20798300    2.20805500    7.35896600   2     102  C
   -4.74157500    0.89050800    7.35946200   2     103  C
    3.73260200    3.08839400    8.57787900   2     104  C
    4.49348700    1.89231700    8.57987000   2     105  C
    4.26798400   -2.22656000    8.58180300   2     106  C
    4.76507900   -0.90049500    8.58232700   2     107  C
   -1.89831200   -4.30610100    8.57972600   2     108  C
    2.23958300   -4.16895400    8.58064700   2     109  C
    1.31918100    4.52811000    8.57869100   2     110  C
    0.89506000   -4.61667200    8.58044200   2     111  C
   -3.11125500   -3.57345500    8.57914500   2     112  C
   -0.09067400    4.66497400    8.57982600   2     113  C
   -4.65904500   -1.22991700    8.58044000   2     114  C
   -2.75261100    3.75591200    8.57928600   2     115  C
   -4.81779100    0.17801100    8.58182100   2     116  C
   -3.79033300    2.79096900    8.58006400   2     117  C

zmatrix: Z-matrix coordinates: (Ang ; rad )
zmatrix: (Fractional coordinates have been converted to cartesian)
cartesian block    1 (   117 atoms)
      0.18556500     -4.69139400      0.02270200
     -1.22205700     -4.53241000      0.02158700
      2.85062200     -3.80092800      0.02267900
      4.85842800     -0.19215200      0.02391700
      3.87327600     -2.82086300      0.02305300
      4.72491900      1.21805800      0.02276200
      3.23298800      3.60181900      0.01951400
     -3.62997200     -3.08369600      0.01967700
      2.00636600      4.32115400      0.01950100
     -4.41128000     -1.90146500      0.01976700
     -4.71073100      0.88469300      0.02159300
     -4.19360800      2.20359200      0.02184700
     -0.79842700      4.57751800      0.02146500
     -2.13862700      4.11939500      0.02206500
      1.62792300      2.01110400      1.25718300
      2.23905400     -4.16794400      1.24514600
      0.89458700     -4.61431900      1.24529100
     -1.89907000     -4.30494300      1.24384900
      4.26788900     -2.22585200      1.24484800
     -3.11507000     -3.57861900      1.24269800
     -4.65383800     -1.22976800      1.24180200
     -2.74955000      3.75315700      1.24435000
     -4.80306200      0.17691200      1.24333000
     -3.78411800      2.78631000      1.24467100
      4.76685900     -0.90039000      1.24484300
      4.50076200      1.89762700      1.24521000
      3.75764700      3.10994500      1.24496100
     -0.08897000      4.66176200      1.24322800
      1.32516000      4.54317400      1.24362300
     -3.64192700     -3.09337200      2.46599400
      2.85002400     -3.79825500      2.46758400
     -1.22177000     -4.53137000      2.46673600
      0.18519000     -4.68783100      2.46749000
     -4.18877700      2.19933500      2.46650800
      3.87505500     -2.82177000      2.46587400
     -4.42041600     -1.90448800      2.46555100
     -4.71192000      0.88441200      2.46536500
      4.86115900     -0.19182800      2.46546800
     -0.79968900      4.58218900      2.46570800
      2.00267200      4.31224300      2.46936600
     -2.13887900      4.12061300      2.46625100
      4.72722700      1.21752600      2.46713400
      3.22856900      3.59500800      2.47136900
      2.33297700     -0.86458500      4.85145600
      0.89411600     -4.61295900      3.69063400
     -3.11636500     -3.57933300      3.69005700
     -4.66647900     -1.22962600      3.68722700
     -4.81934100      0.17830700      3.68558900
     -1.89591200     -4.30085500      3.68995400
     -3.78365700      2.78458800      3.68881900
      2.23574300     -4.16176400      3.69002400
      4.77716100     -0.90274600      3.68881100
     -2.75105100      3.75279500      3.68977100
      4.27968100     -2.23067400      3.68836400
     -0.09225100      4.69187300      3.68879700
      1.31788100      4.53048600      3.69132800
      4.49571000      1.89064300      3.69167600
      3.72642600      3.07883300      3.69321600
     -0.23878600      2.26641100      4.27872400
     -1.93306500     -1.36393900      3.18462700
     -4.41124600     -1.89651000      4.91276700
     -4.74007500      0.88963200      4.90933900
      4.87608900     -0.19480600      4.91336500
     -3.62616500     -3.07546700      4.91439200
      4.72755700      1.21471700      4.91336300
     -4.20286900      2.20310800      4.90998700
      2.84844600     -3.79624600      4.91312200
     -1.21995500     -4.52879300      4.91320000
      0.18602200     -4.68856800      4.91304100
      3.88658700     -2.82997200      4.91312800
     -2.14044200      4.12413600      4.91170600
     -0.80551800      4.60906700      4.91289500
      1.99302800      4.29945100      4.91325300
      3.20321300      3.56581800      4.91337200
      4.77630800     -0.90378000      6.13824600
      4.27996500     -2.23205100      6.13821600
      4.48941600      1.88615400      6.13588000
      0.89595000     -4.61563500      6.13579100
      1.31540500      4.52499500      6.13542600
      2.23890500     -4.16638400      6.13621800
     -3.10980900     -3.57043700      6.13535000
      3.71701300      3.07186900      6.13522300
     -0.09290700      4.67568900      6.13606500
     -4.66972400     -1.22908400      6.13585900
     -4.85385400      0.18078800      6.13461400
     -3.79727600      2.79345100      6.13380200
     -1.89769900     -4.30348100      6.13501300
     -2.74916100      3.74875300      6.13546400
     -2.47263300      0.49893100      6.15476400
      3.20832900      3.57310500      7.35604900
      3.87824500     -2.82502000      7.36032500
      1.99420800      4.30208500      7.35651100
      4.86455300     -0.19424800      7.36135600
      4.72615000      1.21511900      7.35936700
      0.18571900     -4.69084200      7.35795000
      2.85355500     -3.80349000      7.35879800
     -0.80129900      4.58545900      7.35789200
     -2.14135200      4.12284100      7.35794600
     -1.22257900     -4.53525400      7.35714400
     -4.41327600     -1.89902500      7.35700700
     -3.62646700     -3.07721300      7.35652100
     -4.20798300      2.20805500      7.35896600
     -4.74157500      0.89050800      7.35946200
      3.73260200      3.08839400      8.57787900
      4.49348700      1.89231700      8.57987000
      4.26798400     -2.22656000      8.58180300
      4.76507900     -0.90049500      8.58232700
     -1.89831200     -4.30610100      8.57972600
      2.23958300     -4.16895400      8.58064700
      1.31918100      4.52811000      8.57869100
      0.89506000     -4.61667200      8.58044200
     -3.11125500     -3.57345500      8.57914500
     -0.09067400      4.66497400      8.57982600
     -4.65904500     -1.22991700      8.58044000
     -2.75261100      3.75591200      8.57928600
     -4.81779100      0.17801100      8.58182100
     -3.79033300      2.79096900      8.58006400


Z-matrix Symbol Section -------
Variables
Constants
------------ End of Z-matrix Information


coxmol: Writing XMOL coordinates into file C112.xyz                                                        
siesta: PDOS info: 
siesta: e1, e2, sigma, nhist:   -24.00 eV   15.00 eV    0.10 eV   1000

siesta: Program's energy decomposition (eV):
siesta: Ebs     =     -6821.629517
siesta: Eions   =     35455.844120
siesta: Ena     =     11784.358591
siesta: Ekin    =     12850.387351
siesta: Enl     =      -499.224135
siesta: DEna    =      -842.312576
siesta: DUscf   =        50.062173
siesta: DUext   =         0.000000
siesta: Exc     =     -5301.242318
siesta: eta*DQ  =         0.000000
siesta: Emadel  =         0.000000
siesta: Emeta   =         0.000000
siesta: Emolmec =         0.000000
siesta: Ekinion =         0.000000
siesta: Eharris =    -17413.815057
siesta: Etot    =    -17413.815034
siesta: FreeEng =    -17413.846949

siesta: Final energy (eV):
siesta:  Band Struct. =   -6821.629517
siesta:       Kinetic =   12850.387351
siesta:       Hartree =  501414.629465
siesta:    Ext. field =       0.000000
siesta:   Exch.-corr. =   -5301.242318
siesta:  Ion-electron =-1015585.476854
siesta:       Ion-ion =  489207.887322
siesta:       Ekinion =       0.000000
siesta:         Total =  -17413.815034

siesta: Stress tensor (static) (eV/Ang**3):
siesta:     0.000010    0.000000    0.000004
siesta:     0.000000   -0.000003   -0.000002
siesta:     0.000004   -0.000002   -0.000244

siesta: Cell volume =      93561.705545 Ang**3

siesta: Pressure (static):
siesta:                Solid            Molecule  Units
siesta:           0.00000086          0.00000086  Ry/Bohr**3
siesta:           0.00007908          0.00007908  eV/Ang**3
siesta:           0.12670051          0.12670051  kBar
(Free)E+ p_basis*V_orbitals  =      -17349.508303
(Free)Eharris+ p_basis*V_orbitals  =      -17349.508326

siesta: Total spin polarization (Qup-Qdown) =   -0.000579

siesta: Electric dipole (a.u.)  =   -0.072178    0.260846    0.000000
siesta: Electric dipole (Debye) =   -0.183459    0.663006    0.000000

Hirshfeld Net Atomic Populations:
Atom #    Qatom  Species
     1   -0.008  C                   
     2   -0.008  C                   
     3   -0.008  C                   
     4   -0.009  C                   
     5   -0.009  C                   
     6   -0.006  C                   
     7   -0.010  C                   
     8   -0.007  C                   
     9   -0.009  C                   
    10   -0.008  C                   
    11   -0.008  C                   
    12   -0.009  C                   
    13   -0.009  C                   
    14   -0.010  C                   
    15    0.274  Li                  
    16   -0.009  C                   
    17   -0.008  C                   
    18   -0.005  C                   
    19   -0.008  C                   
    20   -0.005  C                   
    21   -0.005  C                   
    22   -0.009  C                   
    23   -0.006  C                   
    24   -0.010  C                   
    25   -0.008  C                   
    26   -0.007  C                   
    27   -0.017  C                   
    28   -0.006  C                   
    29   -0.013  C                   
    30   -0.010  C                   
    31   -0.006  C                   
    32   -0.006  C                   
    33   -0.007  C                   
    34   -0.007  C                   
    35   -0.006  C                   
    36   -0.009  C                   
    37   -0.006  C                   
    38   -0.007  C                   
    39   -0.005  C                   
    40   -0.008  C                   
    41   -0.006  C                   
    42   -0.006  C                   
    43   -0.011  C                   
    44    0.196  Li                  
    45   -0.007  C                   
    46   -0.012  C                   
    47   -0.007  C                   
    48   -0.004  C                   
    49   -0.005  C                   
    50   -0.006  C                   
    51   -0.007  C                   
    52   -0.008  C                   
    53   -0.006  C                   
    54   -0.008  C                   
    55   -0.012  C                   
    56   -0.006  C                   
    57   -0.007  C                   
    58   -0.006  C                   
    59    0.040  Li                  
    60    0.162  Li                  
    61   -0.004  C                   
    62   -0.009  C                   
    63   -0.010  C                   
    64   -0.004  C                   
    65   -0.007  C                   
    66   -0.006  C                   
    67   -0.005  C                   
    68   -0.007  C                   
    69   -0.007  C                   
    70   -0.013  C                   
    71   -0.006  C                   
    72   -0.013  C                   
    73   -0.006  C                   
    74   -0.007  C                   
    75   -0.006  C                   
    76   -0.006  C                   
    77   -0.007  C                   
    78   -0.007  C                   
    79   -0.007  C                   
    80   -0.006  C                   
    81   -0.007  C                   
    82   -0.009  C                   
    83   -0.005  C                   
    84   -0.006  C                   
    85   -0.015  C                   
    86   -0.010  C                   
    87   -0.007  C                   
    88   -0.005  C                   
    89    0.180  Li                  
    90   -0.009  C                   
    91   -0.006  C                   
    92   -0.009  C                   
    93   -0.007  C                   
    94   -0.008  C                   
    95   -0.007  C                   
    96   -0.006  C                   
    97   -0.009  C                   
    98   -0.008  C                   
    99   -0.009  C                   
   100   -0.005  C                   
   101   -0.006  C                   
   102   -0.006  C                   
   103   -0.009  C                   
   104   -0.007  C                   
   105   -0.008  C                   
   106   -0.008  C                   
   107   -0.008  C                   
   108   -0.008  C                   
   109   -0.008  C                   
   110   -0.008  C                   
   111   -0.008  C                   
   112   -0.009  C                   
   113   -0.009  C                   
   114   -0.007  C                   
   115   -0.009  C                   
   116   -0.005  C                   
   117   -0.008  C                   

Voronoi Net Atomic Populations:
Atom #    Qatom  Species
     1   -0.006  C                   
     2   -0.009  C                   
     3   -0.007  C                   
     4   -0.008  C                   
     5   -0.009  C                   
     6   -0.006  C                   
     7   -0.015  C                   
     8   -0.007  C                   
     9   -0.014  C                   
    10   -0.008  C                   
    11   -0.009  C                   
    12   -0.009  C                   
    13   -0.008  C                   
    14   -0.011  C                   
    15    0.323  Li                  
    16   -0.010  C                   
    17   -0.008  C                   
    18   -0.005  C                   
    19   -0.010  C                   
    20   -0.005  C                   
    21   -0.006  C                   
    22   -0.006  C                   
    23   -0.004  C                   
    24   -0.013  C                   
    25   -0.008  C                   
    26   -0.011  C                   
    27   -0.029  C                   
    28   -0.007  C                   
    29   -0.023  C                   
    30   -0.019  C                   
    31   -0.007  C                   
    32   -0.008  C                   
    33   -0.007  C                   
    34   -0.008  C                   
    35   -0.005  C                   
    36   -0.016  C                   
    37   -0.007  C                   
    38   -0.006  C                   
    39   -0.004  C                   
    40   -0.010  C                   
    41   -0.007  C                   
    42   -0.008  C                   
    43   -0.015  C                   
    44    0.241  Li                  
    45   -0.006  C                   
    46   -0.020  C                   
    47   -0.013  C                   
    48   -0.001  C                   
    49   -0.006  C                   
    50   -0.004  C                   
    51   -0.006  C                   
    52   -0.010  C                   
    53   -0.007  C                   
    54   -0.013  C                   
    55   -0.021  C                   
    56   -0.007  C                   
    57   -0.007  C                   
    58   -0.003  C                   
    59    0.034  Li                  
    60    0.195  Li                  
    61   -0.002  C                   
    62   -0.011  C                   
    63   -0.018  C                   
    64   -0.006  C                   
    65   -0.008  C                   
    66   -0.006  C                   
    67   -0.006  C                   
    68   -0.007  C                   
    69   -0.006  C                   
    70   -0.023  C                   
    71   -0.008  C                   
    72   -0.022  C                   
    73   -0.009  C                   
    74   -0.007  C                   
    75   -0.010  C                   
    76   -0.011  C                   
    77   -0.009  C                   
    78   -0.009  C                   
    79   -0.006  C                   
    80   -0.007  C                   
    81   -0.006  C                   
    82   -0.008  C                   
    83   -0.005  C                   
    84   -0.011  C                   
    85   -0.026  C                   
    86   -0.017  C                   
    87   -0.009  C                   
    88   -0.004  C                   
    89    0.220  Li                  
    90   -0.010  C                   
    91   -0.005  C                   
    92   -0.009  C                   
    93   -0.005  C                   
    94   -0.010  C                   
    95   -0.007  C                   
    96   -0.006  C                   
    97   -0.009  C                   
    98   -0.007  C                   
    99   -0.010  C                   
   100   -0.006  C                   
   101   -0.007  C                   
   102   -0.010  C                   
   103   -0.015  C                   
   104   -0.005  C                   
   105   -0.007  C                   
   106   -0.008  C                   
   107   -0.007  C                   
   108   -0.008  C                   
   109   -0.008  C                   
   110   -0.006  C                   
   111   -0.007  C                   
   112   -0.007  C                   
   113   -0.009  C                   
   114   -0.008  C                   
   115   -0.008  C                   
   116   -0.002  C                   
   117   -0.006  C                   
>> End of run:   2-AUG-2019   4:13:13
