Siesta Version  : siesta-4.1b4+104
Architecture    : x86_64-unknown-linux-gnu--Intel
Compiler version: ifort (IFORT) 13.0.1 20121010
Compiler flags  : mpifc -g
PP flags        : -DMPI -DFC_HAVE_FLUSH -DFC_HAVE_ABORT -DSIESTA__DIAG_2STAGE
Libraries       : libsiestaLAPACK.a   -Wl,--start-group -lmkl_intel_lp64 -lmkl_core -lmkl_sequeential -lmkl_scalapack_lp64 -lmkl_blacs_intelmpi_lp64 -lmkl_lapack95_lp64 -lmkl_blas95_lp64 -Wl,--end-group
PARALLEL version

* Running on 24 nodes in parallel
>> Start of run:   2-MAR-2020   0:48:58

                           ***********************       
                           *  WELCOME TO SIESTA  *       
                           ***********************       

reinit: Reading from standard input
reinit: Dumped input in INPUT_TMP.08469
************************** Dump of input data file ****************************
NumberOfAtoms 96
NumberOfSpecies 1
%block ChemicalSpeciesLabel
 1  6  C
%endblock ChemicalSpeciesLabel
%block Zmatrix
cartesian
 1    2.986316     1.2369831      0.231779      1  1  1
 1    1.2369831     2.986316      0.231779      1  1  1
 1    -1.2369831     2.986316      0.231779      1  1  1
 1    -2.986316     1.2369831      0.231779      1  1  1
 1    -2.986316     -1.2369831      0.231779      1  1  1
 1    -1.2369831     -2.986316      0.231779      1  1  1
 1    1.2369831     -2.986316      0.231779      1  1  1
 1    2.986316     -1.2369831      0.231779      1  1  1
 1    2.285364     2.285364      0.8993034      1  1  1
 1    0.0     3.2320149      0.8992818      1  1  1
 1    -2.285364     2.285364      0.8993034      1  1  1
 1    -3.2320149     0.0      0.8992818      1  1  1
 1    -2.285364     -2.285364      0.8993034      1  1  1
 1    0.0     -3.2320149      0.8992818      1  1  1
 1    2.285364     -2.285364      0.8993034      1  1  1
 1    3.2320149     0.0      0.8992818      1  1  1
 1    2.2839996     2.2839996      2.2776826      1  1  1
 1    0.0     3.2301011      2.2775646      1  1  1
 1    -2.2839996     2.2839996      2.2776826      1  1  1
 1    -3.2301011     0.0      2.2775646      1  1  1
 1    -2.2839996     -2.2839996      2.2776826      1  1  1
 1    0.0     -3.2301011      2.2775646      1  1  1
 1    2.2839996     -2.2839996      2.2776826      1  1  1
 1    3.2301011     0.0      2.2775646      1  1  1
 1    1.2355952     2.9830414      2.9458035      1  1  1
 1    -1.2355952     2.9830414      2.9458035      1  1  1
 1    -2.9830414     1.2355952      2.9458035      1  1  1
 1    -2.9830414     -1.2355952      2.9458035      1  1  1
 1    -1.2355952     -2.9830414      2.9458035      1  1  1
 1    1.2355952     -2.9830414      2.9458035      1  1  1
 1    2.9830414     -1.2355952      2.9458035      1  1  1
 1    2.9830414     1.2355952      2.9458035      1  1  1
 1    1.2350059     2.9816372      4.3248518      1  1  1
 1    -1.2350059     2.9816372      4.3248518      1  1  1
 1    -2.9816372     1.2350059      4.3248518      1  1  1
 1    -2.9816372     -1.2350059      4.3248518      1  1  1
 1    -1.2350059     -2.9816372      4.3248518      1  1  1
 1    1.2350059     -2.9816372      4.3248518      1  1  1
 1    2.9816372     -1.2350059      4.3248518      1  1  1
 1    2.9816372     1.2350059      4.3248518      1  1  1
 1    0.0     3.2267113      4.9944641      1  1  1
 1    -2.2815839     2.2815839      4.9944295      1  1  1
 1    -3.2267113     0.0      4.9944641      1  1  1
 1    -2.2815839     -2.2815839      4.9944295      1  1  1
 1    0.0     -3.2267113      4.9944641      1  1  1
 1    2.2815839     -2.2815839      4.9944295      1  1  1
 1    3.2267113     0.0      4.9944641      1  1  1
 1    2.2815839     2.2815839      4.9944295      1  1  1
 1    0.0     3.2268131      6.3738891      1  1  1
 1    -2.2816202     2.2816202      6.3738567      1  1  1
 1    -3.2268131     0.0      6.3738891      1  1  1
 1    -2.2816202     -2.2816202      6.3738567      1  1  1
 1    0.0     -3.2268131      6.3738891      1  1  1
 1    2.2816202     -2.2816202      6.3738567      1  1  1
 1    3.2268131     0.0      6.3738891      1  1  1
 1    2.2816202     2.2816202      6.3738567      1  1  1
 1    -1.2350995     2.9817992      7.0431741      1  1  1
 1    -2.9817992     1.2350995      7.0431741      1  1  1
 1    -2.9817992     -1.2350995      7.0431741      1  1  1
 1    -1.2350995     -2.9817992      7.0431741      1  1  1
 1    1.2350995     -2.9817992      7.0431741      1  1  1
 1    2.9817992     -1.2350995      7.0431741      1  1  1
 1    2.9817992     1.2350995      7.0431741      1  1  1
 1    1.2350995     2.9817992      7.0431741      1  1  1
 1    -1.2356478     2.9831834      8.4222975      1  1  1
 1    -2.9831834     1.2356478      8.4222975      1  1  1
 1    -2.9831834     -1.2356478      8.4222975      1  1  1
 1    -1.2356478     -2.9831834      8.4222975      1  1  1
 1    1.2356478     -2.9831834      8.4222975      1  1  1
 1    2.9831834     -1.2356478      8.4222975      1  1  1
 1    2.9831834     1.2356478      8.4222975      1  1  1
 1    1.2356478     2.9831834      8.4222975      1  1  1
 1    -2.2839854     2.2839854      9.0905286      1  1  1
 1    -3.2301515     0.0      9.0905451      1  1  1
 1    -2.2839854     -2.2839854      9.0905286      1  1  1
 1    0.0     -3.2301515      9.0905451      1  1  1
 1    2.2839854     -2.2839854      9.0905286      1  1  1
 1    3.2301515     0.0      9.0905451      1  1  1
 1    2.2839854     2.2839854      9.0905286      1  1  1
 1    0.0     3.2301515      9.0905451      1  1  1
 1    -2.2852766     2.2852766      10.4687592      1  1  1
 1    -3.2318831     0.0      10.4687733      1  1  1
 1    -2.2852766     -2.2852766      10.4687592      1  1  1
 1    0.0     -3.2318831      10.4687733      1  1  1
 1    2.2852766     -2.2852766      10.4687592      1  1  1
 1    3.2318831     0.0      10.4687733      1  1  1
 1    2.2852766     2.2852766      10.4687592      1  1  1
 1    0.0     3.2318831      10.4687733      1  1  1
 1    -2.9862287     1.2369587      11.1366669      1  1  1
 1    -2.9862287     -1.2369587      11.1366669      1  1  1
 1    -1.2369587     -2.9862287      11.1366669      1  1  1
 1    1.2369587     -2.9862287      11.1366669      1  1  1
 1    2.9862287     -1.2369587      11.1366669      1  1  1
 1    2.9862287     1.2369587      11.1366669      1  1  1
 1    1.2369587     2.9862287      11.1366669      1  1  1
 1    -1.2369587     2.9862287      11.1366669      1  1  1
%endblock Zmatrix
SystemName          nanotube (8,0)
SystemLabel         SWNT
MeshCutoff       300.0 Ry
MaxSCFIterations       100
SolutionMethod         diagon
XC.functional=GGA
XC.authors=PBE
ZM.UnitsLength = Ang
LatticeConstant 1.0 Ang
MD.TypeOfRun           cg               # Type of dynamics: Conjugate gradients
MD.NumCGsteps          100                # number of CG steps
MD.MaxCGDispl          0.15 Ang
WriteForces .true.
WriteMullikenPop     1
WriteCoorXmol       True
SaveBaderCharge     True
WriteHirshfeldPop   True
WriteVoronoiPop     True
SaveRho             True
SaveDeltaRho            True
%block kgrid_Monkhorst_Pack
  1  0  0    0.0
  0  1  0    0.0
  0  0  40   0.0
%endblock kgrid_Monkhorst_Pack
%block LatticeParameters
90.0 90.0 12.2833 90. 90.  90.
%endblock LatticeParameters
%block ProjectedDensityOfStates
-20.00 10.00 0.200 500 eV
%endblock ProjectedDensityOfStates
BandLineScale  pi/a
%block Bandlines
1  0.000 0.000 0.000 "\Gamma"   #start at gamma
99 0.000 0.000 0.080 "X"        #99 k points to x
%endblock BandLines
WriteBands     true
************************** End of input data file *****************************

reinit: -----------------------------------------------------------------------
reinit: System Name: nanotube (8,0
reinit: -----------------------------------------------------------------------
reinit: System Label: SWNT
reinit: -----------------------------------------------------------------------

initatom: Reading input for the pseudopotentials and atomic orbitals ----------
Species number:   1 Atomic number:    6 Label: C
 
Ground state valence configuration:   2s02  2p02
Reading pseudopotential information in formatted form from C.psf

Valence configuration for pseudopotential generation:
2s( 2.00) rc: 1.54
2p( 2.00) rc: 1.54
3d( 0.00) rc: 1.54
4f( 0.00) rc: 1.54
For C, standard SIESTA heuristics set lmxkb to 3
 (one more than the basis l, including polarization orbitals).
Use PS.lmax or PS.KBprojectors blocks to override.

<basis_specs>
===============================================================================
C                    Z=   6    Mass=  12.010        Charge= 0.17977+309
Lmxo=1 Lmxkb= 3    BasisType=split      Semic=F
L=0  Nsemic=0  Cnfigmx=2
          i=1  nzeta=2  polorb=0  (2s)
            splnorm:   0.15000    
               vcte:    0.0000    
               rinn:    0.0000    
               qcoe:    0.0000    
               qyuk:    0.0000    
               qwid:   0.10000E-01
                rcs:    0.0000      0.0000    
            lambdas:   1.00000     1.00000    
L=1  Nsemic=0  Cnfigmx=2
          i=1  nzeta=2  polorb=1  (2p)
            splnorm:   0.15000    
               vcte:    0.0000    
               rinn:    0.0000    
               qcoe:    0.0000    
               qyuk:    0.0000    
               qwid:   0.10000E-01
                rcs:    0.0000      0.0000    
            lambdas:   1.00000     1.00000    
-------------------------------------------------------------------------------
L=0  Nkbl=1  erefs: 0.17977+309
L=1  Nkbl=1  erefs: 0.17977+309
L=2  Nkbl=1  erefs: 0.17977+309
L=3  Nkbl=1  erefs: 0.17977+309
===============================================================================
</basis_specs>

atom: Called for C                     (Z =   6)

read_vps: Pseudopotential generation method:
read_vps: ATM3      Troullier-Martins                       
Total valence charge:    4.00000

read_vps: Pseudopotential includes a core correction:
read_vps: Pseudo-core for xc-correction

xc_check: Exchange-correlation functional:
xc_check: GGA Perdew, Burke & Ernzerhof 1996
V l=0 = -2*Zval/r beyond r=  1.5227
V l=1 = -2*Zval/r beyond r=  1.5227
V l=2 = -2*Zval/r beyond r=  1.5227
V l=3 = -2*Zval/r beyond r=  1.5038
All V_l potentials equal beyond r=  1.5227
This should be close to max(r_c) in ps generation
All pots = -2*Zval/r beyond r=  1.5227

VLOCAL1: 99.0% of the norm of Vloc inside     18.722 Ry
VLOCAL1: 99.9% of the norm of Vloc inside     42.668 Ry
atom: Maximum radius for 4*pi*r*r*local-pseudopot. charge    1.83678
atom: Maximum radius for r*vlocal+2*Zval:    1.58088
GHOST: No ghost state for L =  0
GHOST: No ghost state for L =  1
GHOST: No ghost state for L =  2
GHOST: No ghost state for L =  3

KBgen: Kleinman-Bylander projectors: 
   l= 0   rc=  1.704034   el= -1.009801   Ekb=  5.335044   kbcos=  0.316824
   l= 1   rc=  1.704034   el= -0.388707   Ekb= -3.785862   kbcos= -0.366464
   l= 2   rc=  1.791422   el=  0.001971   Ekb= -0.970471   kbcos= -0.009212
   l= 3   rc=  1.859892   el=  0.003065   Ekb= -0.399525   kbcos= -0.001223

KBgen: Total number of  Kleinman-Bylander projectors:   16
atom: -------------------------------------------------------------------------

atom: SANKEY-TYPE ORBITALS:
atom: Selected multiple-zeta basis: split     

SPLIT: Orbitals with angular momentum L= 0

SPLIT: Basis orbitals for state 2s

SPLIT: PAO cut-off radius determined from an
SPLIT: energy shift=  0.020000 Ry

   izeta = 1
                 lambda =    1.000000
                     rc =    4.088342
                 energy =   -0.989105
                kinetic =    0.904439
    potential(screened) =   -1.893544
       potential(ionic) =   -5.484581

   izeta = 2
                 rmatch =    3.347176
              splitnorm =    0.150000
                 energy =   -0.835603
                kinetic =    1.364067
    potential(screened) =   -2.199670
       potential(ionic) =   -6.017020

SPLIT: Orbitals with angular momentum L= 1

SPLIT: Basis orbitals for state 2p

SPLIT: PAO cut-off radius determined from an
SPLIT: energy shift=  0.020000 Ry

   izeta = 1
                 lambda =    1.000000
                     rc =    4.870301
                 energy =   -0.368906
                kinetic =    2.520369
    potential(screened) =   -2.889275
       potential(ionic) =   -6.370528

   izeta = 2
                 rmatch =    3.475094
              splitnorm =    0.150000
                 energy =   -0.205913
                kinetic =    3.767535
    potential(screened) =   -3.973448
       potential(ionic) =   -7.809680

POLgen: Perturbative polarization orbital with L=  2

POLgen: Polarization orbital for state 2p

   izeta = 1
                     rc =    4.870301
                 energy =    1.296434
                kinetic =    2.645086
    potential(screened) =   -1.348652
       potential(ionic) =   -4.303965
atom: Total number of Sankey-type orbitals: 13

atm_pop: Valence configuration (for local Pseudopot. screening):
 2s( 2.00)                                                            
 2p( 2.00)                                                            
Vna: chval, zval:    4.00000   4.00000

Vna:  Cut-off radius for the neutral-atom potential:   4.870301
comcore: Pseudo-core radius Rcore=  1.791422

atom: _________________________________________________________________________

prinput: Basis input ----------------------------------------------------------

PAO.BasisType split     

%block ChemicalSpeciesLabel
    1    6 C                       # Species index, atomic number, species label
%endblock ChemicalSpeciesLabel

%block PAO.Basis                 # Define Basis set
C                     2                    # Species label, number of l-shells
 n=2   0   2                         # n, l, Nzeta 
   4.088      3.347   
   1.000      1.000   
 n=2   1   2 P   1                   # n, l, Nzeta, Polarization, NzetaPol
   4.870      3.475   
   1.000      1.000   
%endblock PAO.Basis

prinput: ----------------------------------------------------------------------

coor:   Atomic-coordinates input format  =     Cartesian coordinates
coor:                                            (in Bohr units)
read_Zmatrix: Length units: Ang       
read_Zmatrix: Angle  units: rad       
read_Zmatrix: Force tolerances:
read_Zmatrix:    for lengths =     0.001556 Ry/Bohr
read_Zmatrix:    for angles  =     0.003565 Ry/rad

read_Zmatrix: Maximum displacements:
read_Zmatrix:    for lengths =     0.200000 Bohr
read_Zmatrix:    for angles  =     0.003000 rad
%block Zmatrix
cartesian
 1    2.986316     1.2369831      0.231779      1  1  1
 1    1.2369831     2.986316      0.231779      1  1  1
 1    -1.2369831     2.986316      0.231779      1  1  1
 1    -2.986316     1.2369831      0.231779      1  1  1
 1    -2.986316     -1.2369831      0.231779      1  1  1
 1    -1.2369831     -2.986316      0.231779      1  1  1
 1    1.2369831     -2.986316      0.231779      1  1  1
 1    2.986316     -1.2369831      0.231779      1  1  1
 1    2.285364     2.285364      0.8993034      1  1  1
 1    0.0     3.2320149      0.8992818      1  1  1
 1    -2.285364     2.285364      0.8993034      1  1  1
 1    -3.2320149     0.0      0.8992818      1  1  1
 1    -2.285364     -2.285364      0.8993034      1  1  1
 1    0.0     -3.2320149      0.8992818      1  1  1
 1    2.285364     -2.285364      0.8993034      1  1  1
 1    3.2320149     0.0      0.8992818      1  1  1
 1    2.2839996     2.2839996      2.2776826      1  1  1
 1    0.0     3.2301011      2.2775646      1  1  1
 1    -2.2839996     2.2839996      2.2776826      1  1  1
 1    -3.2301011     0.0      2.2775646      1  1  1
 1    -2.2839996     -2.2839996      2.2776826      1  1  1
 1    0.0     -3.2301011      2.2775646      1  1  1
 1    2.2839996     -2.2839996      2.2776826      1  1  1
 1    3.2301011     0.0      2.2775646      1  1  1
 1    1.2355952     2.9830414      2.9458035      1  1  1
 1    -1.2355952     2.9830414      2.9458035      1  1  1
 1    -2.9830414     1.2355952      2.9458035      1  1  1
 1    -2.9830414     -1.2355952      2.9458035      1  1  1
 1    -1.2355952     -2.9830414      2.9458035      1  1  1
 1    1.2355952     -2.9830414      2.9458035      1  1  1
 1    2.9830414     -1.2355952      2.9458035      1  1  1
 1    2.9830414     1.2355952      2.9458035      1  1  1
 1    1.2350059     2.9816372      4.3248518      1  1  1
 1    -1.2350059     2.9816372      4.3248518      1  1  1
 1    -2.9816372     1.2350059      4.3248518      1  1  1
 1    -2.9816372     -1.2350059      4.3248518      1  1  1
 1    -1.2350059     -2.9816372      4.3248518      1  1  1
 1    1.2350059     -2.9816372      4.3248518      1  1  1
 1    2.9816372     -1.2350059      4.3248518      1  1  1
 1    2.9816372     1.2350059      4.3248518      1  1  1
 1    0.0     3.2267113      4.9944641      1  1  1
 1    -2.2815839     2.2815839      4.9944295      1  1  1
 1    -3.2267113     0.0      4.9944641      1  1  1
 1    -2.2815839     -2.2815839      4.9944295      1  1  1
 1    0.0     -3.2267113      4.9944641      1  1  1
 1    2.2815839     -2.2815839      4.9944295      1  1  1
 1    3.2267113     0.0      4.9944641      1  1  1
 1    2.2815839     2.2815839      4.9944295      1  1  1
 1    0.0     3.2268131      6.3738891      1  1  1
 1    -2.2816202     2.2816202      6.3738567      1  1  1
 1    -3.2268131     0.0      6.3738891      1  1  1
 1    -2.2816202     -2.2816202      6.3738567      1  1  1
 1    0.0     -3.2268131      6.3738891      1  1  1
 1    2.2816202     -2.2816202      6.3738567      1  1  1
 1    3.2268131     0.0      6.3738891      1  1  1
 1    2.2816202     2.2816202      6.3738567      1  1  1
 1    -1.2350995     2.9817992      7.0431741      1  1  1
 1    -2.9817992     1.2350995      7.0431741      1  1  1
 1    -2.9817992     -1.2350995      7.0431741      1  1  1
 1    -1.2350995     -2.9817992      7.0431741      1  1  1
 1    1.2350995     -2.9817992      7.0431741      1  1  1
 1    2.9817992     -1.2350995      7.0431741      1  1  1
 1    2.9817992     1.2350995      7.0431741      1  1  1
 1    1.2350995     2.9817992      7.0431741      1  1  1
 1    -1.2356478     2.9831834      8.4222975      1  1  1
 1    -2.9831834     1.2356478      8.4222975      1  1  1
 1    -2.9831834     -1.2356478      8.4222975      1  1  1
 1    -1.2356478     -2.9831834      8.4222975      1  1  1
 1    1.2356478     -2.9831834      8.4222975      1  1  1
 1    2.9831834     -1.2356478      8.4222975      1  1  1
 1    2.9831834     1.2356478      8.4222975      1  1  1
 1    1.2356478     2.9831834      8.4222975      1  1  1
 1    -2.2839854     2.2839854      9.0905286      1  1  1
 1    -3.2301515     0.0      9.0905451      1  1  1
 1    -2.2839854     -2.2839854      9.0905286      1  1  1
 1    0.0     -3.2301515      9.0905451      1  1  1
 1    2.2839854     -2.2839854      9.0905286      1  1  1
 1    3.2301515     0.0      9.0905451      1  1  1
 1    2.2839854     2.2839854      9.0905286      1  1  1
 1    0.0     3.2301515      9.0905451      1  1  1
 1    -2.2852766     2.2852766      10.4687592      1  1  1
 1    -3.2318831     0.0      10.4687733      1  1  1
 1    -2.2852766     -2.2852766      10.4687592      1  1  1
 1    0.0     -3.2318831      10.4687733      1  1  1
 1    2.2852766     -2.2852766      10.4687592      1  1  1
 1    3.2318831     0.0      10.4687733      1  1  1
 1    2.2852766     2.2852766      10.4687592      1  1  1
 1    0.0     3.2318831      10.4687733      1  1  1
 1    -2.9862287     1.2369587      11.1366669      1  1  1
 1    -2.9862287     -1.2369587      11.1366669      1  1  1
 1    -1.2369587     -2.9862287      11.1366669      1  1  1
 1    1.2369587     -2.9862287      11.1366669      1  1  1
 1    2.9862287     -1.2369587      11.1366669      1  1  1
 1    2.9862287     1.2369587      11.1366669      1  1  1
 1    1.2369587     2.9862287      11.1366669      1  1  1
 1    -1.2369587     2.9862287      11.1366669      1  1  1
%endblock Zmatrix
 nZmol:            0
 nSpecies:            1           1           1           1           1
           1           1           1           1           1           1
           1           1           1           1           1           1
           1           1           1           1           1           1
           1           1           1           1           1           1
           1           1           1           1           1           1
           1           1           1           1           1           1
           1           1           1           1           1           1
           1           1           1           1           1           1
           1           1           1           1           1           1
           1           1           1           1           1           1
           1           1           1           1           1           1
           1           1           1           1           1           1
           1           1           1           1           1           1
           1           1           1           1           1           1
           1           1           1           1           1           1
           1

zmatrix: Z-matrix coordinates: (Ang ; rad )
zmatrix: (Fractional coordinates have been converted to cartesian)
cartesian block    1 (    96 atoms)
      2.98631600      1.23698310      0.23177900
      1.23698310      2.98631600      0.23177900
     -1.23698310      2.98631600      0.23177900
     -2.98631600      1.23698310      0.23177900
     -2.98631600     -1.23698310      0.23177900
     -1.23698310     -2.98631600      0.23177900
      1.23698310     -2.98631600      0.23177900
      2.98631600     -1.23698310      0.23177900
      2.28536400      2.28536400      0.89930340
      0.00000000      3.23201490      0.89928180
     -2.28536400      2.28536400      0.89930340
     -3.23201490      0.00000000      0.89928180
     -2.28536400     -2.28536400      0.89930340
      0.00000000     -3.23201490      0.89928180
      2.28536400     -2.28536400      0.89930340
      3.23201490      0.00000000      0.89928180
      2.28399960      2.28399960      2.27768260
      0.00000000      3.23010110      2.27756460
     -2.28399960      2.28399960      2.27768260
     -3.23010110      0.00000000      2.27756460
     -2.28399960     -2.28399960      2.27768260
      0.00000000     -3.23010110      2.27756460
      2.28399960     -2.28399960      2.27768260
      3.23010110      0.00000000      2.27756460
      1.23559520      2.98304140      2.94580350
     -1.23559520      2.98304140      2.94580350
     -2.98304140      1.23559520      2.94580350
     -2.98304140     -1.23559520      2.94580350
     -1.23559520     -2.98304140      2.94580350
      1.23559520     -2.98304140      2.94580350
      2.98304140     -1.23559520      2.94580350
      2.98304140      1.23559520      2.94580350
      1.23500590      2.98163720      4.32485180
     -1.23500590      2.98163720      4.32485180
     -2.98163720      1.23500590      4.32485180
     -2.98163720     -1.23500590      4.32485180
     -1.23500590     -2.98163720      4.32485180
      1.23500590     -2.98163720      4.32485180
      2.98163720     -1.23500590      4.32485180
      2.98163720      1.23500590      4.32485180
      0.00000000      3.22671130      4.99446410
     -2.28158390      2.28158390      4.99442950
     -3.22671130      0.00000000      4.99446410
     -2.28158390     -2.28158390      4.99442950
      0.00000000     -3.22671130      4.99446410
      2.28158390     -2.28158390      4.99442950
      3.22671130      0.00000000      4.99446410
      2.28158390      2.28158390      4.99442950
      0.00000000      3.22681310      6.37388910
     -2.28162020      2.28162020      6.37385670
     -3.22681310      0.00000000      6.37388910
     -2.28162020     -2.28162020      6.37385670
      0.00000000     -3.22681310      6.37388910
      2.28162020     -2.28162020      6.37385670
      3.22681310      0.00000000      6.37388910
      2.28162020      2.28162020      6.37385670
     -1.23509950      2.98179920      7.04317410
     -2.98179920      1.23509950      7.04317410
     -2.98179920     -1.23509950      7.04317410
     -1.23509950     -2.98179920      7.04317410
      1.23509950     -2.98179920      7.04317410
      2.98179920     -1.23509950      7.04317410
      2.98179920      1.23509950      7.04317410
      1.23509950      2.98179920      7.04317410
     -1.23564780      2.98318340      8.42229750
     -2.98318340      1.23564780      8.42229750
     -2.98318340     -1.23564780      8.42229750
     -1.23564780     -2.98318340      8.42229750
      1.23564780     -2.98318340      8.42229750
      2.98318340     -1.23564780      8.42229750
      2.98318340      1.23564780      8.42229750
      1.23564780      2.98318340      8.42229750
     -2.28398540      2.28398540      9.09052860
     -3.23015150      0.00000000      9.09054510
     -2.28398540     -2.28398540      9.09052860
      0.00000000     -3.23015150      9.09054510
      2.28398540     -2.28398540      9.09052860
      3.23015150      0.00000000      9.09054510
      2.28398540      2.28398540      9.09052860
      0.00000000      3.23015150      9.09054510
     -2.28527660      2.28527660     10.46875920
     -3.23188310      0.00000000     10.46877330
     -2.28527660     -2.28527660     10.46875920
      0.00000000     -3.23188310     10.46877330
      2.28527660     -2.28527660     10.46875920
      3.23188310      0.00000000     10.46877330
      2.28527660      2.28527660     10.46875920
      0.00000000      3.23188310     10.46877330
     -2.98622870      1.23695870     11.13666690
     -2.98622870     -1.23695870     11.13666690
     -1.23695870     -2.98622870     11.13666690
      1.23695870     -2.98622870     11.13666690
      2.98622870     -1.23695870     11.13666690
      2.98622870      1.23695870     11.13666690
      1.23695870      2.98622870     11.13666690
     -1.23695870      2.98622870     11.13666690


Z-matrix Symbol Section -------
Variables
Constants
------------ End of Z-matrix Information


siesta: Atomic coordinates (Bohr) and species
siesta:      5.64332   2.33756   0.43800  1        1
siesta:      2.33756   5.64332   0.43800  1        2
siesta:     -2.33756   5.64332   0.43800  1        3
siesta:     -5.64332   2.33756   0.43800  1        4
siesta:     -5.64332  -2.33756   0.43800  1        5
siesta:     -2.33756  -5.64332   0.43800  1        6
siesta:      2.33756  -5.64332   0.43800  1        7
siesta:      5.64332  -2.33756   0.43800  1        8
siesta:      4.31871   4.31871   1.69944  1        9
siesta:      0.00000   6.10763   1.69940  1       10
siesta:     -4.31871   4.31871   1.69944  1       11
siesta:     -6.10763   0.00000   1.69940  1       12
siesta:     -4.31871  -4.31871   1.69944  1       13
siesta:      0.00000  -6.10763   1.69940  1       14
siesta:      4.31871  -4.31871   1.69944  1       15
siesta:      6.10763   0.00000   1.69940  1       16
siesta:      4.31614   4.31614   4.30420  1       17
siesta:      0.00000   6.10401   4.30398  1       18
siesta:     -4.31614   4.31614   4.30420  1       19
siesta:     -6.10401   0.00000   4.30398  1       20
siesta:     -4.31614  -4.31614   4.30420  1       21
siesta:      0.00000  -6.10401   4.30398  1       22
siesta:      4.31614  -4.31614   4.30420  1       23
siesta:      6.10401   0.00000   4.30398  1       24
siesta:      2.33494   5.63713   5.56676  1       25
siesta:     -2.33494   5.63713   5.56676  1       26
siesta:     -5.63713   2.33494   5.56676  1       27
siesta:     -5.63713  -2.33494   5.56676  1       28
siesta:     -2.33494  -5.63713   5.56676  1       29
siesta:      2.33494  -5.63713   5.56676  1       30
siesta:      5.63713  -2.33494   5.56676  1       31
siesta:      5.63713   2.33494   5.56676  1       32
siesta:      2.33382   5.63448   8.17279  1       33
siesta:     -2.33382   5.63448   8.17279  1       34
siesta:     -5.63448   2.33382   8.17279  1       35
siesta:     -5.63448  -2.33382   8.17279  1       36
siesta:     -2.33382  -5.63448   8.17279  1       37
siesta:      2.33382  -5.63448   8.17279  1       38
siesta:      5.63448  -2.33382   8.17279  1       39
siesta:      5.63448   2.33382   8.17279  1       40
siesta:      0.00000   6.09760   9.43817  1       41
siesta:     -4.31157   4.31157   9.43811  1       42
siesta:     -6.09760   0.00000   9.43817  1       43
siesta:     -4.31157  -4.31157   9.43811  1       44
siesta:      0.00000  -6.09760   9.43817  1       45
siesta:      4.31157  -4.31157   9.43811  1       46
siesta:      6.09760   0.00000   9.43817  1       47
siesta:      4.31157   4.31157   9.43811  1       48
siesta:      0.00000   6.09780  12.04491  1       49
siesta:     -4.31164   4.31164  12.04485  1       50
siesta:     -6.09780   0.00000  12.04491  1       51
siesta:     -4.31164  -4.31164  12.04485  1       52
siesta:      0.00000  -6.09780  12.04491  1       53
siesta:      4.31164  -4.31164  12.04485  1       54
siesta:      6.09780   0.00000  12.04491  1       55
siesta:      4.31164   4.31164  12.04485  1       56
siesta:     -2.33400   5.63479  13.30968  1       57
siesta:     -5.63479   2.33400  13.30968  1       58
siesta:     -5.63479  -2.33400  13.30968  1       59
siesta:     -2.33400  -5.63479  13.30968  1       60
siesta:      2.33400  -5.63479  13.30968  1       61
siesta:      5.63479  -2.33400  13.30968  1       62
siesta:      5.63479   2.33400  13.30968  1       63
siesta:      2.33400   5.63479  13.30968  1       64
siesta:     -2.33504   5.63740  15.91584  1       65
siesta:     -5.63740   2.33504  15.91584  1       66
siesta:     -5.63740  -2.33504  15.91584  1       67
siesta:     -2.33504  -5.63740  15.91584  1       68
siesta:      2.33504  -5.63740  15.91584  1       69
siesta:      5.63740  -2.33504  15.91584  1       70
siesta:      5.63740   2.33504  15.91584  1       71
siesta:      2.33504   5.63740  15.91584  1       72
siesta:     -4.31611   4.31611  17.17862  1       73
siesta:     -6.10410   0.00000  17.17865  1       74
siesta:     -4.31611  -4.31611  17.17862  1       75
siesta:      0.00000  -6.10410  17.17865  1       76
siesta:      4.31611  -4.31611  17.17862  1       77
siesta:      6.10410   0.00000  17.17865  1       78
siesta:      4.31611   4.31611  17.17862  1       79
siesta:      0.00000   6.10410  17.17865  1       80
siesta:     -4.31855   4.31855  19.78310  1       81
siesta:     -6.10738   0.00000  19.78312  1       82
siesta:     -4.31855  -4.31855  19.78310  1       83
siesta:      0.00000  -6.10738  19.78312  1       84
siesta:      4.31855  -4.31855  19.78310  1       85
siesta:      6.10738   0.00000  19.78312  1       86
siesta:      4.31855   4.31855  19.78310  1       87
siesta:      0.00000   6.10738  19.78312  1       88
siesta:     -5.64316   2.33751  21.04526  1       89
siesta:     -5.64316  -2.33751  21.04526  1       90
siesta:     -2.33751  -5.64316  21.04526  1       91
siesta:      2.33751  -5.64316  21.04526  1       92
siesta:      5.64316  -2.33751  21.04526  1       93
siesta:      5.64316   2.33751  21.04526  1       94
siesta:      2.33751   5.64316  21.04526  1       95
siesta:     -2.33751   5.64316  21.04526  1       96

siesta: System type = chain     

initatomlists: Number of atoms, orbitals, and projectors:     96  1248  1536

coxmol: Writing XMOL coordinates into file SWNT.xyz                                                            

siesta: ******************** Simulation parameters ****************************
siesta:
siesta: The following are some of the parameters of the simulation.
siesta: A complete list of the parameters used, including default values,
siesta: can be found in file out.fdf
siesta:
redata: Spin configuration                          = none
redata: Number of spin components                   = 1
redata: Time-Reversal Symmetry                      = T
redata: Spin-spiral                                 = F
redata: Long output                                 =   F
redata: Number of Atomic Species                    =        1
redata: Charge density info will appear in .RHO file
redata: Write Mulliken Pop.                         = Atomic and Orbital charges
redata: Matel table size (NRTAB)                    =     1024
redata: Mesh Cutoff                                 =   300.0000 Ry
redata: Net charge of the system                    =     0.0000 |e|
redata: Min. number of SCF Iter                     =        0
redata: Max. number of SCF Iter                     =      100
redata: SCF convergence failure will abort job
redata: SCF mix quantity                            = Hamiltonian
redata: Mix DM or H after convergence               =   F
redata: Recompute H after scf cycle                 =   F
redata: Mix DM in first SCF step                    =   T
redata: Write Pulay info on disk                    =   F
redata: New DM Occupancy tolerance                  = 0.000000000001
redata: No kicks to SCF
redata: DM Mixing Weight for Kicks                  =     0.5000
redata: Require Harris convergence for SCF          =   F
redata: Harris energy tolerance for SCF             =     0.000100 eV
redata: Require DM convergence for SCF              =   T
redata: DM tolerance for SCF                        =     0.000100
redata: Require EDM convergence for SCF             =   F
redata: EDM tolerance for SCF                       =     0.001000 eV
redata: Require H convergence for SCF               =   T
redata: Hamiltonian tolerance for SCF               =     0.001000 eV
redata: Require (free) Energy convergence for SCF   =   F
redata: (free) Energy tolerance for SCF             =     0.000100 eV
redata: Using Saved Data (generic)                  =   F
redata: Use continuation files for DM               =   F
redata: Neglect nonoverlap interactions             =   F
redata: Method of Calculation                       = Diagonalization
redata: Electronic Temperature                      =   299.9869 K
redata: Fix the spin of the system                  =   F
redata: Dynamics option                             = CG coord. optimization
redata: Variable cell                               =   F
redata: Use continuation files for CG               =   F
redata: Max atomic displ per move                   =     0.1500 Ang
redata: Maximum number of optimization moves        =      100
redata: Force tolerance                             =     0.0400 eV/Ang
mix.SCF: Pulay mixing                            = Pulay
mix.SCF:    Variant                              = stable
mix.SCF:    History steps                        = 2
mix.SCF:    Linear mixing weight                 =     0.250000
mix.SCF:    Mixing weight                        =     0.250000
mix.SCF:    SVD condition                        = 0.1000E-07
redata: ***********************************************************************

%block SCF.Mixers
  Pulay
%endblock SCF.Mixers

%block SCF.Mixer.Pulay
  # Mixing method
  method pulay
  variant stable

  # Mixing options
  weight 0.2500
  weight.linear 0.2500
  history 2
%endblock SCF.Mixer.Pulay
 
DM_history_depth set to one: no extrapolation allowed by default for geometry relaxation
Size of DM history Fstack: 1
Total number of electrons:   384.000000
Total ionic charge:   384.000000

* ProcessorY, Blocksize:    4  24


* Orbital distribution balance (max,min):    72    48

k-point displ. along   3 input, could be:     0.00    0.50
 Kpoints in:           21 . Kpoints trimmed:           21

siesta: k-grid: Number of k-points =    21
siesta: k-grid: Cutoff (effective) =    45.000 Ang
siesta: k-grid: Supercell and displacements
siesta: k-grid:    1   0   0      0.000
siesta: k-grid:    0   1   0      0.000
siesta: k-grid:    0   0  40      0.000
 
diag: Algorithm                                     = D&C
diag: Parallel over k                               =   F
diag: Use parallel 2D distribution                  =   T
diag: Parallel block-size                           = 24
diag: Parallel distribution                         =     4 x     6
diag: Used triangular part                          = Lower
diag: Absolute tolerance                            =  0.100E-15
diag: Orthogonalization factor                      =  0.100E-05
diag: Memory factor                                 =  1.0000
Using LatticeConstant from fdf file for BandLinesScale:    1.889727 Bohr
Beware any cell changes by the end of the run
Using LatticeConstant from fdf file for BandLinesScale:    1.889727 Bohr
Beware any cell changes by the end of the run

superc: Internal auxiliary supercell:     1 x     1 x     3  =       3
superc: Number of atoms, orbitals, and projectors:    288   3744   4608
 
 
ts: **************************************************************
ts: Save H and S matrices                           =    F
ts: Save DM and EDM matrices                        =    F
ts: Fix Hartree potential                           =    F
ts: Only save the overlap matrix S                  =    F
ts: **************************************************************
 
************************ Begin: TS CHECKS AND WARNINGS ************************
************************ End: TS CHECKS AND WARNINGS **************************


                     ====================================
                        Begin CG opt. move =      0

zmatrix: Z-matrix coordinates: (Ang ; rad )
zmatrix: (Fractional coordinates have been converted to cartesian)
cartesian block    1 (    96 atoms)
      2.98631600      1.23698310      0.23177900
      1.23698310      2.98631600      0.23177900
     -1.23698310      2.98631600      0.23177900
     -2.98631600      1.23698310      0.23177900
     -2.98631600     -1.23698310      0.23177900
     -1.23698310     -2.98631600      0.23177900
      1.23698310     -2.98631600      0.23177900
      2.98631600     -1.23698310      0.23177900
      2.28536400      2.28536400      0.89930340
      0.00000000      3.23201490      0.89928180
     -2.28536400      2.28536400      0.89930340
     -3.23201490      0.00000000      0.89928180
     -2.28536400     -2.28536400      0.89930340
      0.00000000     -3.23201490      0.89928180
      2.28536400     -2.28536400      0.89930340
      3.23201490      0.00000000      0.89928180
      2.28399960      2.28399960      2.27768260
      0.00000000      3.23010110      2.27756460
     -2.28399960      2.28399960      2.27768260
     -3.23010110      0.00000000      2.27756460
     -2.28399960     -2.28399960      2.27768260
      0.00000000     -3.23010110      2.27756460
      2.28399960     -2.28399960      2.27768260
      3.23010110      0.00000000      2.27756460
      1.23559520      2.98304140      2.94580350
     -1.23559520      2.98304140      2.94580350
     -2.98304140      1.23559520      2.94580350
     -2.98304140     -1.23559520      2.94580350
     -1.23559520     -2.98304140      2.94580350
      1.23559520     -2.98304140      2.94580350
      2.98304140     -1.23559520      2.94580350
      2.98304140      1.23559520      2.94580350
      1.23500590      2.98163720      4.32485180
     -1.23500590      2.98163720      4.32485180
     -2.98163720      1.23500590      4.32485180
     -2.98163720     -1.23500590      4.32485180
     -1.23500590     -2.98163720      4.32485180
      1.23500590     -2.98163720      4.32485180
      2.98163720     -1.23500590      4.32485180
      2.98163720      1.23500590      4.32485180
      0.00000000      3.22671130      4.99446410
     -2.28158390      2.28158390      4.99442950
     -3.22671130      0.00000000      4.99446410
     -2.28158390     -2.28158390      4.99442950
      0.00000000     -3.22671130      4.99446410
      2.28158390     -2.28158390      4.99442950
      3.22671130      0.00000000      4.99446410
      2.28158390      2.28158390      4.99442950
      0.00000000      3.22681310      6.37388910
     -2.28162020      2.28162020      6.37385670
     -3.22681310      0.00000000      6.37388910
     -2.28162020     -2.28162020      6.37385670
      0.00000000     -3.22681310      6.37388910
      2.28162020     -2.28162020      6.37385670
      3.22681310      0.00000000      6.37388910
      2.28162020      2.28162020      6.37385670
     -1.23509950      2.98179920      7.04317410
     -2.98179920      1.23509950      7.04317410
     -2.98179920     -1.23509950      7.04317410
     -1.23509950     -2.98179920      7.04317410
      1.23509950     -2.98179920      7.04317410
      2.98179920     -1.23509950      7.04317410
      2.98179920      1.23509950      7.04317410
      1.23509950      2.98179920      7.04317410
     -1.23564780      2.98318340      8.42229750
     -2.98318340      1.23564780      8.42229750
     -2.98318340     -1.23564780      8.42229750
     -1.23564780     -2.98318340      8.42229750
      1.23564780     -2.98318340      8.42229750
      2.98318340     -1.23564780      8.42229750
      2.98318340      1.23564780      8.42229750
      1.23564780      2.98318340      8.42229750
     -2.28398540      2.28398540      9.09052860
     -3.23015150      0.00000000      9.09054510
     -2.28398540     -2.28398540      9.09052860
      0.00000000     -3.23015150      9.09054510
      2.28398540     -2.28398540      9.09052860
      3.23015150      0.00000000      9.09054510
      2.28398540      2.28398540      9.09052860
      0.00000000      3.23015150      9.09054510
     -2.28527660      2.28527660     10.46875920
     -3.23188310      0.00000000     10.46877330
     -2.28527660     -2.28527660     10.46875920
      0.00000000     -3.23188310     10.46877330
      2.28527660     -2.28527660     10.46875920
      3.23188310      0.00000000     10.46877330
      2.28527660      2.28527660     10.46875920
      0.00000000      3.23188310     10.46877330
     -2.98622870      1.23695870     11.13666690
     -2.98622870     -1.23695870     11.13666690
     -1.23695870     -2.98622870     11.13666690
      1.23695870     -2.98622870     11.13666690
      2.98622870     -1.23695870     11.13666690
      2.98622870      1.23695870     11.13666690
      1.23695870      2.98622870     11.13666690
     -1.23695870      2.98622870     11.13666690


Z-matrix Symbol Section -------
Variables
Constants
------------ End of Z-matrix Information

                     ====================================

superc: Internal auxiliary supercell:     1 x     1 x     3  =       3
superc: Number of atoms, orbitals, and projectors:    288   3744   4608

outcell: Unit cell vectors (Ang):
       90.000000    0.000000    0.000000
        0.000000   90.000000    0.000000
        0.000000    0.000000   12.283300

outcell: Cell vector modules (Ang)   :   90.000000   90.000000   12.283300
outcell: Cell angles (23,13,12) (deg):     90.0000     90.0000     90.0000
outcell: Cell volume (Ang**3)        :  99494.7300
<dSpData1D:S at geom step 0
  <sparsity:sparsity for geom step 0
    nrows_g=1248 nrows=72 sparsity=.0220 nnzs=34280, refcount: 7>
  <dData1D:(new from dSpData1D) n=34280, refcount: 1>
refcount: 1>
new_DM -- step:     1
Initializing Density Matrix...
DM filled with atomic data:
<dSpData2D:DM initialized from atoms
  <sparsity:sparsity for geom step 0
    nrows_g=1248 nrows=72 sparsity=.0220 nnzs=34280, refcount: 8>
  <dData2D:DM n=34280 m=1, refcount: 1>
refcount: 1>
No. of atoms with KB's overlaping orbs in proc 0. Max # of overlaps:      67     161
New grid distribution:   1
           1       1:  480    1:  120    1:   11
           2       1:  480    1:  120   12:   22
           3       1:  480    1:  120   23:   33
           4       1:  480    1:  120   34:   44
           5       1:  480    1:  120   45:   54
           6       1:  480    1:  120   55:   64
           7       1:  480  121:  240    1:   11
           8       1:  480  121:  240   12:   22
           9       1:  480  121:  240   23:   33
          10       1:  480  121:  240   34:   44
          11       1:  480  121:  240   45:   54
          12       1:  480  121:  240   55:   64
          13       1:  480  241:  360    1:   11
          14       1:  480  241:  360   12:   22
          15       1:  480  241:  360   23:   33
          16       1:  480  241:  360   34:   44
          17       1:  480  241:  360   45:   54
          18       1:  480  241:  360   55:   64
          19       1:  480  361:  480    1:   11
          20       1:  480  361:  480   12:   22
          21       1:  480  361:  480   23:   33
          22       1:  480  361:  480   34:   44
          23       1:  480  361:  480   45:   54
          24       1:  480  361:  480   55:   64

InitMesh: MESH =   960 x   960 x   128 =   117964800
InitMesh: (bp) =   480 x   480 x    64 =    14745600
InitMesh: Mesh cutoff (required, used) =   300.000   300.118 Ry
ExtMesh (bp) on 0 =   536 x   176 x    67 =     6320512
New grid distribution:   2
           1      28:  469   12:   90    1:   64
           2       6:   27   17:   90    1:   64
           3       1:    5   12:   90    1:   64
           4      12:   27    6:   11    1:   64
           5       1:   11    1:   11    1:   64
           6      12:   27    1:    5    1:   64
           7     148:  469   91:  469    1:   64
           8       1:    5   91:  469    1:   64
           9       6:  147   91:  464    1:   64
          10     470:  480   18:   90    1:   64
          11     465:  480    1:    7    1:   64
          12     470:  480   12:   17    1:   64
          13      28:  464    1:   11    1:   64
          14      12:  147  476:  480    1:   64
          15       6:   27   12:   16    1:   64
          16     465:  480    8:   11    1:   64
          17     470:  480   91:  464    1:   64
          18     470:  480  465:  469    1:   64
          19      12:  147  470:  475    1:   64
          20       1:   11  470:  480    1:   64
          21     148:  464  470:  480    1:   64
          22       6:  147  465:  469    1:   64
          23     465:  480  474:  480    1:   64
          24     465:  480  470:  473    1:   64
New grid distribution:   3
           1     460:  480   23:  229    1:   64
           2     231:  460    1:   15    1:   64
           3      12:  230    8:   15    1:   64
           4     461:  480    1:    8    1:   64
           5      10:  230   16:   24    1:   64
           6      12:  230    1:    7    1:   64
           7     231:  459   16:  229    1:   64
           8     459:  480  459:  465    1:   64
           9      10:  230   25:  229    1:   64
          10       1:    9   16:  229    1:   64
          11       1:   11    1:   15    1:   64
          12     460:  480   16:   22    1:   64
          13     230:  458  230:  465    1:   64
          14       1:    9  230:  465    1:   64
          15       1:   11  466:  480    1:   64
          16     461:  480  466:  472    1:   64
          17      10:  229  230:  455    1:   64
          18     461:  480    9:   15    1:   64
          19     230:  460  466:  480    1:   64
          20      12:  229  466:  473    1:   64
          21     459:  480  230:  458    1:   64
          22      10:  229  456:  465    1:   64
          23      12:  229  474:  480    1:   64
          24     461:  480  473:  480    1:   64
Setting up quadratic distribution...
ExtMesh (bp) on 0 =   498 x   135 x   120 =     8067600
PhiOnMesh: Number of (b)points on node 0 =              2234752
PhiOnMesh: nlist on node 0 =               547000

stepf: Fermi-Dirac step function

siesta: Program's energy decomposition (eV):
siesta: Ebs     =     -4298.070426
siesta: Eions   =     24537.348089
siesta: Ena     =      5084.414121
siesta: Ekin    =     10867.942261
siesta: Enl     =     -1152.205331
siesta: Eso     =         0.000000
siesta: Eldau   =         0.000000
siesta: DEna    =      -374.042813
siesta: DUscf   =        35.164452
siesta: DUext   =         0.000000
siesta: Exc     =     -5471.533091
siesta: eta*DQ  =         0.000000
siesta: Emadel  =         0.000000
siesta: Emeta   =         0.000000
siesta: Emolmec =         0.000000
siesta: Ekinion =         0.000000
siesta: Eharris =    -15488.820106
siesta: Etot    =    -15547.608489
siesta: FreeEng =    -15547.608490

        iscf     Eharris(eV)        E_KS(eV)     FreeEng(eV)     dDmax    Ef(eV) dHmax(eV)
   scf:    1   -15488.820106   -15547.608489   -15547.608490  1.904681 -4.985477  3.576255
timer: Routine,Calls,Time,% = IterSCF        1      75.320  81.13
   scf:    2   -15553.447460   -15550.777918   -15550.777919  0.024737 -4.345144  1.914492
   scf:    3   -15553.584301   -15552.360085   -15552.360086  0.033842 -3.683537  0.277042
   scf:    4   -15552.626428   -15552.501830   -15552.501831  0.007277 -3.611149  0.121082
   scf:    5   -15552.574341   -15552.542886   -15552.542887  0.005743 -3.562710  0.027805
   scf:    6   -15552.543388   -15552.543150   -15552.543150  0.000097 -3.570233  0.020717
   scf:    7   -15552.544491   -15552.543840   -15552.543841  0.000299 -3.578672  0.013644
   scf:    8   -15552.544582   -15552.544238   -15552.544239  0.000342 -3.587213  0.005673
   scf:    9   -15552.544297   -15552.544271   -15552.544271  0.000087 -3.588856  0.002863
   scf:   10   -15552.544278   -15552.544275   -15552.544275  0.000022 -3.589089  0.002027
   scf:   11   -15552.544280   -15552.544277   -15552.544278  0.000015 -3.589437  0.001509
   scf:   12   -15552.544282   -15552.544280   -15552.544280  0.000029 -3.590287  0.000906

SCF Convergence by DM+H criterion
max |DM_out - DM_in|         :     0.0000294629
max |H_out - H_in|      (eV) :     0.0009063949
SCF cycle converged after 12 iterations

Using DM_out to compute the final energy and forces
No. of atoms with KB's overlaping orbs in proc 0. Max # of overlaps:      67     161

siesta: E_KS(eV) =           -15552.5443

siesta: E_KS - E_eggbox =    -15552.5443

zmatrix: Atomic forces (eV/Ang ; eV/rad )
zmatrix: (No information if symbols are used)
cartesian    1 (    96 atoms)
     1   -0.006386   -0.003256    0.012200
     2   -0.003256   -0.006386    0.012200
     3    0.003256   -0.006386    0.012200
     4    0.006386   -0.003256    0.012200
     5    0.006386    0.003256    0.012200
     6    0.003256    0.006386    0.012200
     7   -0.003256    0.006386    0.012200
     8   -0.006386    0.003256    0.012200
     9   -0.004997   -0.004997   -0.019891
    10   -0.000000   -0.008893   -0.020362
    11    0.004997   -0.004997   -0.019891
    12    0.008893   -0.000000   -0.020362
    13    0.004997    0.004997   -0.019891
    14    0.000000    0.008893   -0.020362
    15   -0.004997    0.004997   -0.019891
    16   -0.008893   -0.000000   -0.020362
    17    0.001971    0.001971    0.026156
    18   -0.000000    0.001961    0.028596
    19   -0.001971    0.001971    0.026156
    20   -0.001961   -0.000000    0.028596
    21   -0.001971   -0.001971    0.026156
    22    0.000000   -0.001961    0.028596
    23    0.001971   -0.001971    0.026156
    24    0.001961   -0.000000    0.028596
    25    0.002853    0.009559    0.021452
    26   -0.002853    0.009559    0.021452
    27   -0.009559    0.002853    0.021452
    28   -0.009559   -0.002853    0.021452
    29   -0.002853   -0.009559    0.021452
    30    0.002853   -0.009559    0.021452
    31    0.009559   -0.002853    0.021452
    32    0.009559    0.002853    0.021452
    33    0.004029    0.009482    0.015333
    34   -0.004029    0.009482    0.015333
    35   -0.009482    0.004028    0.015333
    36   -0.009482   -0.004028    0.015333
    37   -0.004029   -0.009482    0.015333
    38    0.004029   -0.009482    0.015333
    39    0.009482   -0.004029    0.015333
    40    0.009482    0.004029    0.015333
    41    0.000000    0.015834    0.007788
    42   -0.011387    0.011387    0.009048
    43   -0.015834    0.000000    0.007788
    44   -0.011387   -0.011387    0.009048
    45    0.000000   -0.015834    0.007788
    46    0.011387   -0.011387    0.009048
    47    0.015834   -0.000000    0.007788
    48    0.011387    0.011387    0.009048
    49   -0.000000    0.015977   -0.008192
    50   -0.011980    0.011980   -0.007692
    51   -0.015977    0.000000   -0.008192
    52   -0.011980   -0.011980   -0.007692
    53   -0.000000   -0.015977   -0.008192
    54    0.011980   -0.011980   -0.007692
    55    0.015977    0.000000   -0.008192
    56    0.011980    0.011980   -0.007692
    57   -0.003664    0.009827   -0.015856
    58   -0.009827    0.003664   -0.015856
    59   -0.009827   -0.003664   -0.015856
    60   -0.003664   -0.009827   -0.015856
    61    0.003664   -0.009827   -0.015856
    62    0.009827   -0.003664   -0.015856
    63    0.009827    0.003664   -0.015856
    64    0.003664    0.009827   -0.015856
    65   -0.004657    0.008121   -0.022315
    66   -0.008121    0.004657   -0.022315
    67   -0.008121   -0.004657   -0.022315
    68   -0.004657   -0.008121   -0.022315
    69    0.004657   -0.008121   -0.022315
    70    0.008121   -0.004657   -0.022315
    71    0.008121    0.004657   -0.022315
    72    0.004657    0.008121   -0.022315
    73   -0.001056    0.001056   -0.032105
    74   -0.001431    0.000000   -0.033107
    75   -0.001056   -0.001056   -0.032105
    76    0.000000   -0.001431   -0.033107
    77    0.001056   -0.001056   -0.032105
    78    0.001431   -0.000000   -0.033107
    79    0.001056    0.001056   -0.032105
    80    0.000000    0.001431   -0.033107
    81    0.005755   -0.005755    0.020391
    82    0.008683    0.000000    0.021666
    83    0.005755    0.005755    0.020391
    84    0.000000    0.008683    0.021666
    85   -0.005755    0.005755    0.020391
    86   -0.008683   -0.000000    0.021666
    87   -0.005755   -0.005755    0.020391
    88    0.000000   -0.008683    0.021666
    89    0.006298   -0.003973   -0.018926
    90    0.006298    0.003973   -0.018926
    91    0.003973    0.006298   -0.018926
    92   -0.003973    0.006298   -0.018926
    93   -0.006298    0.003973   -0.018926
    94   -0.006298   -0.003973   -0.018926
    95   -0.003973   -0.006298   -0.018926
    96    0.003973   -0.006298   -0.018926


Variable forces (eV/Ang ; eV/rad )

siesta: Atomic forces (eV/Ang):
     1   -0.006386   -0.003256    0.012200
     2   -0.003256   -0.006386    0.012200
     3    0.003256   -0.006386    0.012200
     4    0.006386   -0.003256    0.012200
     5    0.006386    0.003256    0.012200
     6    0.003256    0.006386    0.012200
     7   -0.003256    0.006386    0.012200
     8   -0.006386    0.003256    0.012200
     9   -0.004997   -0.004997   -0.019891
    10   -0.000000   -0.008893   -0.020362
    11    0.004997   -0.004997   -0.019891
    12    0.008893   -0.000000   -0.020362
    13    0.004997    0.004997   -0.019891
    14    0.000000    0.008893   -0.020362
    15   -0.004997    0.004997   -0.019891
    16   -0.008893   -0.000000   -0.020362
    17    0.001971    0.001971    0.026156
    18   -0.000000    0.001961    0.028596
    19   -0.001971    0.001971    0.026156
    20   -0.001961   -0.000000    0.028596
    21   -0.001971   -0.001971    0.026156
    22    0.000000   -0.001961    0.028596
    23    0.001971   -0.001971    0.026156
    24    0.001961   -0.000000    0.028596
    25    0.002853    0.009559    0.021452
    26   -0.002853    0.009559    0.021452
    27   -0.009559    0.002853    0.021452
    28   -0.009559   -0.002853    0.021452
    29   -0.002853   -0.009559    0.021452
    30    0.002853   -0.009559    0.021452
    31    0.009559   -0.002853    0.021452
    32    0.009559    0.002853    0.021452
    33    0.004029    0.009482    0.015333
    34   -0.004029    0.009482    0.015333
    35   -0.009482    0.004028    0.015333
    36   -0.009482   -0.004028    0.015333
    37   -0.004029   -0.009482    0.015333
    38    0.004029   -0.009482    0.015333
    39    0.009482   -0.004029    0.015333
    40    0.009482    0.004029    0.015333
    41    0.000000    0.015834    0.007788
    42   -0.011387    0.011387    0.009048
    43   -0.015834    0.000000    0.007788
    44   -0.011387   -0.011387    0.009048
    45    0.000000   -0.015834    0.007788
    46    0.011387   -0.011387    0.009048
    47    0.015834   -0.000000    0.007788
    48    0.011387    0.011387    0.009048
    49   -0.000000    0.015977   -0.008192
    50   -0.011980    0.011980   -0.007692
    51   -0.015977    0.000000   -0.008192
    52   -0.011980   -0.011980   -0.007692
    53   -0.000000   -0.015977   -0.008192
    54    0.011980   -0.011980   -0.007692
    55    0.015977    0.000000   -0.008192
    56    0.011980    0.011980   -0.007692
    57   -0.003664    0.009827   -0.015856
    58   -0.009827    0.003664   -0.015856
    59   -0.009827   -0.003664   -0.015856
    60   -0.003664   -0.009827   -0.015856
    61    0.003664   -0.009827   -0.015856
    62    0.009827   -0.003664   -0.015856
    63    0.009827    0.003664   -0.015856
    64    0.003664    0.009827   -0.015856
    65   -0.004657    0.008121   -0.022315
    66   -0.008121    0.004657   -0.022315
    67   -0.008121   -0.004657   -0.022315
    68   -0.004657   -0.008121   -0.022315
    69    0.004657   -0.008121   -0.022315
    70    0.008121   -0.004657   -0.022315
    71    0.008121    0.004657   -0.022315
    72    0.004657    0.008121   -0.022315
    73   -0.001056    0.001056   -0.032105
    74   -0.001431    0.000000   -0.033107
    75   -0.001056   -0.001056   -0.032105
    76    0.000000   -0.001431   -0.033107
    77    0.001056   -0.001056   -0.032105
    78    0.001431   -0.000000   -0.033107
    79    0.001056    0.001056   -0.032105
    80    0.000000    0.001431   -0.033107
    81    0.005755   -0.005755    0.020391
    82    0.008683    0.000000    0.021666
    83    0.005755    0.005755    0.020391
    84    0.000000    0.008683    0.021666
    85   -0.005755    0.005755    0.020391
    86   -0.008683   -0.000000    0.021666
    87   -0.005755   -0.005755    0.020391
    88    0.000000   -0.008683    0.021666
    89    0.006298   -0.003973   -0.018926
    90    0.006298    0.003973   -0.018926
    91    0.003973    0.006298   -0.018926
    92   -0.003973    0.006298   -0.018926
    93   -0.006298    0.003973   -0.018926
    94   -0.006298   -0.003973   -0.018926
    95   -0.003973   -0.006298   -0.018926
    96    0.003973   -0.006298   -0.018926
----------------------------------------
   Tot   -0.000000    0.000000   -0.095717
----------------------------------------
   Max    0.033107
   Res    0.000756    sqrt( Sum f_i^2 / 3N )
----------------------------------------
   Max    0.033107    constrained

Stress-tensor-Voigt (kbar):       -0.01       -0.01       -3.96        0.00        0.00        0.00
(Free)E + p*V (eV/cell)   -15470.2519
Target enthalpy (eV/cell)   -15552.5443
 
mulliken: Atomic and Orbital Populations:

Species: C                   
Atom  Qatom  Qorb
               2s      2s      2py     2pz     2px     2py     2pz     2px     
               3Pdxy   3Pdyz   3Pdz2   3Pdxz   3Pdx2-y2
   1  4.000   0.438   0.514   0.515   0.507   0.716   0.433   0.482   0.228
              0.024   0.046   0.038   0.036   0.024
   2  4.000   0.438   0.514   0.716   0.507   0.515   0.228   0.482   0.433
              0.024   0.036   0.038   0.046   0.024
   3  4.000   0.438   0.514   0.716   0.507   0.515   0.228   0.482   0.433
              0.024   0.036   0.038   0.046   0.024
   4  4.000   0.438   0.514   0.515   0.507   0.716   0.433   0.482   0.228
              0.024   0.046   0.038   0.036   0.024
   5  4.000   0.438   0.514   0.515   0.507   0.716   0.433   0.482   0.228
              0.024   0.046   0.038   0.036   0.024
   6  4.000   0.438   0.514   0.716   0.507   0.515   0.228   0.482   0.433
              0.024   0.036   0.038   0.046   0.024
   7  4.000   0.438   0.514   0.716   0.507   0.515   0.228   0.482   0.433
              0.024   0.036   0.038   0.046   0.024
   8  4.000   0.438   0.514   0.515   0.507   0.716   0.433   0.482   0.228
              0.024   0.046   0.038   0.036   0.024
   9  4.000   0.438   0.514   0.616   0.507   0.616   0.330   0.483   0.330
              0.015   0.041   0.038   0.041   0.032
  10  4.000   0.438   0.514   0.758   0.507   0.474   0.185   0.483   0.475
              0.032   0.033   0.038   0.048   0.015
  11  4.000   0.438   0.514   0.616   0.507   0.616   0.330   0.483   0.330
              0.015   0.041   0.038   0.041   0.032
  12  4.000   0.438   0.514   0.474   0.507   0.758   0.475   0.483   0.185
              0.032   0.048   0.038   0.033   0.015
  13  4.000   0.438   0.514   0.616   0.507   0.616   0.330   0.483   0.330
              0.015   0.041   0.038   0.041   0.032
  14  4.000   0.438   0.514   0.758   0.507   0.474   0.185   0.483   0.475
              0.032   0.033   0.038   0.048   0.015
  15  4.000   0.438   0.514   0.616   0.507   0.616   0.330   0.483   0.330
              0.015   0.041   0.038   0.041   0.032
  16  4.000   0.438   0.514   0.474   0.507   0.758   0.475   0.483   0.185
              0.032   0.048   0.038   0.033   0.015
  17  4.001   0.438   0.514   0.615   0.506   0.615   0.331   0.485   0.331
              0.015   0.041   0.038   0.041   0.032
  18  4.000   0.438   0.514   0.757   0.506   0.474   0.186   0.485   0.475
              0.032   0.034   0.038   0.048   0.015
  19  4.001   0.438   0.514   0.615   0.506   0.615   0.331   0.485   0.331
              0.015   0.041   0.038   0.041   0.032
  20  4.000   0.438   0.514   0.474   0.506   0.757   0.475   0.485   0.186
              0.032   0.048   0.038   0.034   0.015
  21  4.001   0.438   0.514   0.615   0.506   0.615   0.331   0.485   0.331
              0.015   0.041   0.038   0.041   0.032
  22  4.000   0.438   0.514   0.757   0.506   0.474   0.186   0.485   0.475
              0.032   0.034   0.038   0.048   0.015
  23  4.001   0.438   0.514   0.615   0.506   0.615   0.331   0.485   0.331
              0.015   0.041   0.038   0.041   0.032
  24  4.000   0.438   0.514   0.474   0.506   0.757   0.475   0.485   0.186
              0.032   0.048   0.038   0.034   0.015
  25  4.000   0.438   0.514   0.716   0.506   0.515   0.228   0.483   0.433
              0.024   0.036   0.038   0.046   0.024
  26  4.000   0.438   0.514   0.716   0.506   0.515   0.228   0.483   0.433
              0.024   0.036   0.038   0.046   0.024
  27  4.000   0.438   0.514   0.515   0.506   0.716   0.433   0.483   0.228
              0.024   0.046   0.038   0.036   0.024
  28  4.000   0.438   0.514   0.515   0.506   0.716   0.433   0.483   0.228
              0.024   0.046   0.038   0.036   0.024
  29  4.000   0.438   0.514   0.716   0.506   0.515   0.228   0.483   0.433
              0.024   0.036   0.038   0.046   0.024
  30  4.000   0.438   0.514   0.716   0.506   0.515   0.228   0.483   0.433
              0.024   0.036   0.038   0.046   0.024
  31  4.000   0.438   0.514   0.515   0.506   0.716   0.433   0.483   0.228
              0.024   0.046   0.038   0.036   0.024
  32  4.000   0.438   0.514   0.515   0.506   0.716   0.433   0.483   0.228
              0.024   0.046   0.038   0.036   0.024
  33  4.000   0.438   0.514   0.715   0.506   0.515   0.228   0.484   0.433
              0.024   0.036   0.038   0.046   0.024
  34  4.000   0.438   0.514   0.715   0.506   0.515   0.228   0.484   0.433
              0.024   0.036   0.038   0.046   0.024
  35  4.000   0.438   0.514   0.515   0.506   0.715   0.433   0.484   0.228
              0.024   0.046   0.038   0.036   0.024
  36  4.000   0.438   0.514   0.515   0.506   0.715   0.433   0.484   0.228
              0.024   0.046   0.038   0.036   0.024
  37  4.000   0.438   0.514   0.715   0.506   0.515   0.228   0.484   0.433
              0.024   0.036   0.038   0.046   0.024
  38  4.000   0.438   0.514   0.715   0.506   0.515   0.228   0.484   0.433
              0.024   0.036   0.038   0.046   0.024
  39  4.000   0.438   0.514   0.515   0.506   0.715   0.433   0.484   0.228
              0.024   0.046   0.038   0.036   0.024
  40  4.000   0.438   0.514   0.515   0.506   0.715   0.433   0.484   0.228
              0.024   0.046   0.038   0.036   0.024
  41  4.000   0.438   0.514   0.757   0.505   0.474   0.185   0.485   0.476
              0.032   0.033   0.038   0.048   0.015
  42  4.000   0.438   0.514   0.615   0.505   0.615   0.331   0.485   0.331
              0.015   0.041   0.038   0.041   0.032
  43  4.000   0.438   0.514   0.474   0.505   0.757   0.476   0.485   0.185
              0.032   0.048   0.038   0.033   0.015
  44  4.000   0.438   0.514   0.615   0.505   0.615   0.331   0.485   0.331
              0.015   0.041   0.038   0.041   0.032
  45  4.000   0.438   0.514   0.757   0.505   0.474   0.185   0.485   0.476
              0.032   0.033   0.038   0.048   0.015
  46  4.000   0.438   0.514   0.615   0.505   0.615   0.331   0.485   0.331
              0.015   0.041   0.038   0.041   0.032
  47  4.000   0.438   0.514   0.474   0.505   0.757   0.476   0.485   0.185
              0.032   0.048   0.038   0.033   0.015
  48  4.000   0.438   0.514   0.615   0.505   0.615   0.331   0.485   0.331
              0.015   0.041   0.038   0.041   0.032
  49  4.000   0.438   0.514   0.757   0.507   0.474   0.185   0.483   0.476
              0.032   0.033   0.038   0.048   0.015
  50  4.000   0.438   0.514   0.616   0.507   0.616   0.331   0.483   0.331
              0.015   0.041   0.038   0.041   0.032
  51  4.000   0.438   0.514   0.474   0.507   0.757   0.476   0.483   0.185
              0.032   0.048   0.038   0.033   0.015
  52  4.000   0.438   0.514   0.616   0.507   0.616   0.331   0.483   0.331
              0.015   0.041   0.038   0.041   0.032
  53  4.000   0.438   0.514   0.757   0.507   0.474   0.185   0.483   0.476
              0.032   0.033   0.038   0.048   0.015
  54  4.000   0.438   0.514   0.616   0.507   0.616   0.331   0.483   0.331
              0.015   0.041   0.038   0.041   0.032
  55  4.000   0.438   0.514   0.474   0.507   0.757   0.476   0.483   0.185
              0.032   0.048   0.038   0.033   0.015
  56  4.000   0.438   0.514   0.616   0.507   0.616   0.331   0.483   0.331
              0.015   0.041   0.038   0.041   0.032
  57  4.000   0.437   0.514   0.716   0.506   0.516   0.228   0.484   0.433
              0.024   0.036   0.038   0.046   0.024
  58  4.000   0.437   0.514   0.516   0.506   0.716   0.433   0.484   0.228
              0.024   0.046   0.038   0.036   0.024
  59  4.000   0.437   0.514   0.516   0.506   0.716   0.433   0.484   0.228
              0.024   0.046   0.038   0.036   0.024
  60  4.000   0.437   0.514   0.716   0.506   0.516   0.228   0.484   0.433
              0.024   0.036   0.038   0.046   0.024
  61  4.000   0.437   0.514   0.716   0.506   0.516   0.228   0.484   0.433
              0.024   0.036   0.038   0.046   0.024
  62  4.000   0.437   0.514   0.516   0.506   0.716   0.433   0.484   0.228
              0.024   0.046   0.038   0.036   0.024
  63  4.000   0.437   0.514   0.516   0.506   0.716   0.433   0.484   0.228
              0.024   0.046   0.038   0.036   0.024
  64  4.000   0.437   0.514   0.716   0.506   0.516   0.228   0.484   0.433
              0.024   0.036   0.038   0.046   0.024
  65  4.000   0.438   0.514   0.716   0.506   0.516   0.228   0.484   0.433
              0.024   0.036   0.038   0.046   0.024
  66  4.000   0.438   0.514   0.516   0.506   0.716   0.433   0.484   0.228
              0.024   0.046   0.038   0.036   0.024
  67  4.000   0.438   0.514   0.516   0.506   0.716   0.433   0.484   0.228
              0.024   0.046   0.038   0.036   0.024
  68  4.000   0.438   0.514   0.716   0.506   0.516   0.228   0.484   0.433
              0.024   0.036   0.038   0.046   0.024
  69  4.000   0.438   0.514   0.716   0.506   0.516   0.228   0.484   0.433
              0.024   0.036   0.038   0.046   0.024
  70  4.000   0.438   0.514   0.516   0.506   0.716   0.433   0.484   0.228
              0.024   0.046   0.038   0.036   0.024
  71  4.000   0.438   0.514   0.516   0.506   0.716   0.433   0.484   0.228
              0.024   0.046   0.038   0.036   0.024
  72  4.000   0.438   0.514   0.716   0.506   0.516   0.228   0.484   0.433
              0.024   0.036   0.038   0.046   0.024
  73  3.999   0.438   0.514   0.615   0.507   0.615   0.331   0.483   0.331
              0.015   0.041   0.038   0.041   0.032
  74  4.000   0.438   0.514   0.474   0.507   0.757   0.475   0.483   0.186
              0.032   0.048   0.038   0.034   0.015
  75  3.999   0.438   0.514   0.615   0.507   0.615   0.331   0.483   0.331
              0.015   0.041   0.038   0.041   0.032
  76  4.000   0.438   0.514   0.757   0.507   0.474   0.186   0.483   0.475
              0.032   0.034   0.038   0.048   0.015
  77  3.999   0.438   0.514   0.615   0.507   0.615   0.331   0.483   0.331
              0.015   0.041   0.038   0.041   0.032
  78  4.000   0.438   0.514   0.474   0.507   0.757   0.475   0.483   0.186
              0.032   0.048   0.038   0.034   0.015
  79  3.999   0.438   0.514   0.615   0.507   0.615   0.331   0.483   0.331
              0.015   0.041   0.038   0.041   0.032
  80  4.000   0.438   0.514   0.757   0.507   0.474   0.186   0.483   0.475
              0.032   0.034   0.038   0.048   0.015
  81  4.000   0.438   0.514   0.615   0.506   0.615   0.330   0.484   0.330
              0.015   0.041   0.038   0.041   0.032
  82  4.000   0.439   0.513   0.474   0.506   0.758   0.475   0.484   0.185
              0.032   0.048   0.038   0.033   0.015
  83  4.000   0.438   0.514   0.615   0.506   0.615   0.330   0.484   0.330
              0.015   0.041   0.038   0.041   0.032
  84  4.000   0.439   0.513   0.758   0.506   0.474   0.185   0.484   0.475
              0.032   0.033   0.038   0.048   0.015
  85  4.000   0.438   0.514   0.615   0.506   0.615   0.330   0.484   0.330
              0.015   0.041   0.038   0.041   0.032
  86  4.000   0.439   0.513   0.474   0.506   0.758   0.475   0.484   0.185
              0.032   0.048   0.038   0.033   0.015
  87  4.000   0.438   0.514   0.615   0.506   0.615   0.330   0.484   0.330
              0.015   0.041   0.038   0.041   0.032
  88  4.000   0.439   0.513   0.758   0.506   0.474   0.185   0.484   0.475
              0.032   0.033   0.038   0.048   0.015
  89  4.000   0.438   0.514   0.515   0.506   0.716   0.433   0.484   0.228
              0.024   0.046   0.038   0.036   0.024
  90  4.000   0.438   0.514   0.515   0.506   0.716   0.433   0.484   0.228
              0.024   0.046   0.038   0.036   0.024
  91  4.000   0.438   0.514   0.716   0.506   0.515   0.228   0.484   0.433
              0.024   0.036   0.038   0.046   0.024
  92  4.000   0.438   0.514   0.716   0.506   0.515   0.228   0.484   0.433
              0.024   0.036   0.038   0.046   0.024
  93  4.000   0.438   0.514   0.515   0.506   0.716   0.433   0.484   0.228
              0.024   0.046   0.038   0.036   0.024
  94  4.000   0.438   0.514   0.515   0.506   0.716   0.433   0.484   0.228
              0.024   0.046   0.038   0.036   0.024
  95  4.000   0.438   0.514   0.716   0.506   0.515   0.228   0.484   0.433
              0.024   0.036   0.038   0.046   0.024
  96  4.000   0.438   0.514   0.716   0.506   0.515   0.228   0.484   0.433
              0.024   0.036   0.038   0.046   0.024

mulliken: Qtot =      384.000

cgvc_zmatrix: Finished line minimization    1.  Mean atomic displacement =    0.0000

outcoor: Relaxed atomic coordinates (Bohr):                 
    5.64332161    2.33756021    0.43799901   1       1  C
    2.33756021    5.64332161    0.43799901   1       2  C
   -2.33756021    5.64332161    0.43799901   1       3  C
   -5.64332161    2.33756021    0.43799901   1       4  C
   -5.64332161   -2.33756021    0.43799901   1       5  C
   -2.33756021   -5.64332161    0.43799901   1       6  C
    2.33756021   -5.64332161    0.43799901   1       7  C
    5.64332161   -2.33756021    0.43799901   1       8  C
    4.31871378    4.31871378    1.69943781   1       9  C
    0.00000000    6.10762543    1.69939699   1      10  C
   -4.31871378    4.31871378    1.69943781   1      11  C
   -6.10762543    0.00000000    1.69939699   1      12  C
   -4.31871378   -4.31871378    1.69943781   1      13  C
    0.00000000   -6.10762543    1.69939699   1      14  C
    4.31871378   -4.31871378    1.69943781   1      15  C
    6.10762543    0.00000000    1.69939699   1      16  C
    4.31613543    4.31613543    4.30419803   1      17  C
    0.00000000    6.10400887    4.30397504   1      18  C
   -4.31613543    4.31613543    4.30419803   1      19  C
   -6.10400887    0.00000000    4.30397504   1      20  C
   -4.31613543   -4.31613543    4.30419803   1      21  C
    0.00000000   -6.10400887    4.30397504   1      22  C
    4.31613543   -4.31613543    4.30419803   1      23  C
    6.10400887    0.00000000    4.30397504   1      24  C
    2.33493746    5.63713351    5.56676405   1      25  C
   -2.33493746    5.63713351    5.56676405   1      26  C
   -5.63713351    2.33493746    5.56676405   1      27  C
   -5.63713351   -2.33493746    5.56676405   1      28  C
   -2.33493746   -5.63713351    5.56676405   1      29  C
    2.33493746   -5.63713351    5.56676405   1      30  C
    5.63713351   -2.33493746    5.56676405   1      31  C
    5.63713351    2.33493746    5.56676405   1      32  C
    2.33382384    5.63447996    8.17278869   1      33  C
   -2.33382384    5.63447996    8.17278869   1      34  C
   -5.63447996    2.33382384    8.17278869   1      35  C
   -5.63447996   -2.33382384    8.17278869   1      36  C
   -2.33382384   -5.63447996    8.17278869   1      37  C
    2.33382384   -5.63447996    8.17278869   1      38  C
    5.63447996   -2.33382384    8.17278869   1      39  C
    5.63447996    2.33382384    8.17278869   1      40  C
    0.00000000    6.09760307    9.43817305   1      41  C
   -4.31157042    4.31157042    9.43810767   1      42  C
   -6.09760307    0.00000000    9.43817305   1      43  C
   -4.31157042   -4.31157042    9.43810767   1      44  C
    0.00000000   -6.09760307    9.43817305   1      45  C
    4.31157042   -4.31157042    9.43810767   1      46  C
    6.09760307    0.00000000    9.43817305   1      47  C
    4.31157042    4.31157042    9.43810767   1      48  C
    0.00000000    6.09779544   12.04490955   1      49  C
   -4.31163902    4.31163902   12.04484832   1      50  C
   -6.09779544    0.00000000   12.04490955   1      51  C
   -4.31163902   -4.31163902   12.04484832   1      52  C
    0.00000000   -6.09779544   12.04490955   1      53  C
    4.31163902   -4.31163902   12.04484832   1      54  C
    6.09779544    0.00000000   12.04490955   1      55  C
    4.31163902    4.31163902   12.04484832   1      56  C
   -2.33400072    5.63478609   13.30967540   1      57  C
   -5.63478609    2.33400072   13.30967540   1      58  C
   -5.63478609   -2.33400072   13.30967540   1      59  C
   -2.33400072   -5.63478609   13.30967540   1      60  C
    2.33400072   -5.63478609   13.30967540   1      61  C
    5.63478609   -2.33400072   13.30967540   1      62  C
    5.63478609    2.33400072   13.30967540   1      63  C
    2.33400072    5.63478609   13.30967540   1      64  C
   -2.33503686    5.63740185   15.91584196   1      65  C
   -5.63740185    2.33503686   15.91584196   1      66  C
   -5.63740185   -2.33503686   15.91584196   1      67  C
   -2.33503686   -5.63740185   15.91584196   1      68  C
    2.33503686   -5.63740185   15.91584196   1      69  C
    5.63740185   -2.33503686   15.91584196   1      70  C
    5.63740185    2.33503686   15.91584196   1      71  C
    2.33503686    5.63740185   15.91584196   1      72  C
   -4.31610860    4.31610860   17.17861623   1      73  C
   -6.10410411    0.00000000   17.17864741   1      74  C
   -4.31610860   -4.31610860   17.17861623   1      75  C
    0.00000000   -6.10410411   17.17864741   1      76  C
    4.31610860   -4.31610860   17.17861623   1      77  C
    6.10410411    0.00000000   17.17864741   1      78  C
    4.31610860    4.31610860   17.17861623   1      79  C
    0.00000000    6.10410411   17.17864741   1      80  C
   -4.31854861    4.31854861   19.78309564   1      81  C
   -6.10737636    0.00000000   19.78312228   1      82  C
   -4.31854861   -4.31854861   19.78309564   1      83  C
    0.00000000   -6.10737636   19.78312228   1      84  C
    4.31854861   -4.31854861   19.78309564   1      85  C
    6.10737636    0.00000000   19.78312228   1      86  C
    4.31854861    4.31854861   19.78309564   1      87  C
    0.00000000    6.10737636   19.78312228   1      88  C
   -5.64315664    2.33751410   21.04525877   1      89  C
   -5.64315664   -2.33751410   21.04525877   1      90  C
   -2.33751410   -5.64315664   21.04525877   1      91  C
    2.33751410   -5.64315664   21.04525877   1      92  C
    5.64315664   -2.33751410   21.04525877   1      93  C
    5.64315664    2.33751410   21.04525877   1      94  C
    2.33751410    5.64315664   21.04525877   1      95  C
   -2.33751410    5.64315664   21.04525877   1      96  C

zmatrix: Z-matrix coordinates: (Ang ; rad )
zmatrix: (Fractional coordinates have been converted to cartesian)
cartesian block    1 (    96 atoms)
      2.98631600      1.23698310      0.23177900
      1.23698310      2.98631600      0.23177900
     -1.23698310      2.98631600      0.23177900
     -2.98631600      1.23698310      0.23177900
     -2.98631600     -1.23698310      0.23177900
     -1.23698310     -2.98631600      0.23177900
      1.23698310     -2.98631600      0.23177900
      2.98631600     -1.23698310      0.23177900
      2.28536400      2.28536400      0.89930340
      0.00000000      3.23201490      0.89928180
     -2.28536400      2.28536400      0.89930340
     -3.23201490      0.00000000      0.89928180
     -2.28536400     -2.28536400      0.89930340
      0.00000000     -3.23201490      0.89928180
      2.28536400     -2.28536400      0.89930340
      3.23201490      0.00000000      0.89928180
      2.28399960      2.28399960      2.27768260
      0.00000000      3.23010110      2.27756460
     -2.28399960      2.28399960      2.27768260
     -3.23010110      0.00000000      2.27756460
     -2.28399960     -2.28399960      2.27768260
      0.00000000     -3.23010110      2.27756460
      2.28399960     -2.28399960      2.27768260
      3.23010110      0.00000000      2.27756460
      1.23559520      2.98304140      2.94580350
     -1.23559520      2.98304140      2.94580350
     -2.98304140      1.23559520      2.94580350
     -2.98304140     -1.23559520      2.94580350
     -1.23559520     -2.98304140      2.94580350
      1.23559520     -2.98304140      2.94580350
      2.98304140     -1.23559520      2.94580350
      2.98304140      1.23559520      2.94580350
      1.23500590      2.98163720      4.32485180
     -1.23500590      2.98163720      4.32485180
     -2.98163720      1.23500590      4.32485180
     -2.98163720     -1.23500590      4.32485180
     -1.23500590     -2.98163720      4.32485180
      1.23500590     -2.98163720      4.32485180
      2.98163720     -1.23500590      4.32485180
      2.98163720      1.23500590      4.32485180
      0.00000000      3.22671130      4.99446410
     -2.28158390      2.28158390      4.99442950
     -3.22671130      0.00000000      4.99446410
     -2.28158390     -2.28158390      4.99442950
      0.00000000     -3.22671130      4.99446410
      2.28158390     -2.28158390      4.99442950
      3.22671130      0.00000000      4.99446410
      2.28158390      2.28158390      4.99442950
      0.00000000      3.22681310      6.37388910
     -2.28162020      2.28162020      6.37385670
     -3.22681310      0.00000000      6.37388910
     -2.28162020     -2.28162020      6.37385670
      0.00000000     -3.22681310      6.37388910
      2.28162020     -2.28162020      6.37385670
[...]
    5.2189    5.2189    5.3381    5.3402    5.5787    5.5789    5.5973    5.5975    5.7456    5.7456
    5.7825    5.7825    6.5616    6.5616    6.6159    6.6159    6.8740    6.8742    6.9379    6.9381
    7.4561    7.5148    7.5499    7.5499    7.5804    7.5804    7.5913    7.5917    7.6380    7.6380
    7.9891    7.9905    8.0641    8.0654    8.2261    8.2310    8.5454    8.5454    8.5660    8.5660
    8.7061    8.7277    8.8818    8.8818    8.9489    8.9489    9.0203    9.0203    9.0314    9.0314
    9.1403    9.1405    9.1664    9.1666    9.6229    9.6229    9.6465    9.6469    9.6734    9.6740
    9.6884    9.6884    9.9621   10.0052   10.1255   10.2311   10.3801   10.3803   10.3892   10.3894
   10.5657   10.5657   10.6104   10.6104   10.6982   10.6982   10.7323   10.7323   10.8225   10.8228
   10.8539   10.8542   11.1749   11.1749   11.2047   11.2047   11.3267   11.3267   11.3537   11.3537
   11.6053   11.6054   11.6838   11.6839   11.6969   11.6969   11.7265   11.7265   11.8562   11.8563
   11.8966   11.8967   11.9126   11.9126   11.9389   11.9389   12.1634   12.1634   12.2184   12.2184
   12.2870   12.2870   12.3023   12.3023   12.3676   12.3706   12.4137   12.4153   12.5860   12.5860
   12.5903   12.5903   12.6721   12.7046   12.7350   12.7473   12.7473   12.7566   12.7728   12.7729
   12.8857   12.8917   12.9698   12.9820   12.9820   12.9988   12.9988   13.0066   13.0066   13.0141
   13.0141   13.0204   13.0740   13.0740   13.1173   13.1173   13.1813   13.1813   13.1824   13.1824
   13.2589   13.2596   13.4976   13.4976   13.5336   13.5336   13.7666   13.7920   13.8143   13.8145
   13.8308   13.8310   13.9019   13.9019   13.9378   13.9388   13.9397   13.9397   14.0512   14.0512
   14.0843   14.0843   14.1191   14.1191   14.1736   14.1737   14.1805   14.1805   14.1996   14.1997
   14.3338   14.3338   14.3870   14.3871   14.3871   14.3897   14.4309   14.4462   14.4475   14.4475
   14.4561   14.4561   14.5315   14.5491   15.4289   15.4289   15.4673   15.4673   15.6122   15.6126
   15.6369   15.6378   15.7656   15.8069   16.0507   16.0507   16.0966   16.0966   16.4692   16.4707
   16.4775   16.4815   16.7224   16.7224   16.7560   16.7560   16.7729   16.7889   16.7889   16.8156
   16.8156   16.8274   17.0258   17.0720   17.0780   17.0782   17.0839   17.0842   17.5363   17.5363
   17.5647   17.5649   17.5678   17.5678   17.8149   17.8149   17.8168   17.8168   17.9109   17.9112
   17.9204   17.9208   17.9237   17.9273   17.9436   17.9458   18.2153   18.2153   18.2375   18.2375
   18.3813   18.3813   18.3932   18.3932   18.4162   18.4162   18.4327   18.4327   19.2121   19.2123
   19.2246   19.2249   19.5909   19.6441   19.6919   19.6926   19.8762   19.8766   19.8809   19.8810
   19.9836   19.9836   19.9878   19.9878   19.9897   19.9897   20.0383   20.0383   20.2305   20.2305
   20.2606   20.2606   20.6256   20.6562   20.9177   20.9527   20.9527   20.9963   20.9963   21.0014
   21.1192   21.1194   21.1239   21.1241   21.2239   21.2250   21.2453   21.2468   21.6999   21.6999
   21.7083   21.7083   21.8120   21.8122   21.9722   21.9722   22.0072   22.0072   22.1908   22.1908
   22.1949   22.1949   22.2807   22.2811   22.2860   22.2891   22.2893   22.3011   22.4136   22.4138
   22.4359   22.4361   22.4670   22.4724   22.7366   22.7366   22.7628   22.7628   22.7736   22.7736
   22.7779   22.7779   22.9233   22.9241   22.9595   22.9604   23.5204   23.5204   23.5607   23.5607
   23.6578   23.6982   24.0165   24.1090   24.6672   24.6672   24.7540   24.7540   25.1637   25.1637
   25.2174   25.2174   25.6131   25.6131   25.6390   25.6390   26.2418   26.2421   26.2948   26.2951
   26.6177   26.6187   26.6710   26.6724   26.7992   26.7992   26.8316   26.8316   26.8679   26.9114
   26.9120   26.9414   26.9576   26.9593   27.0029   27.0029   27.0675   27.0682   27.0784   27.0784
   27.0910   27.0916   27.5176   27.5190   28.8622   28.8622   28.8847   28.8847   29.6170   29.7065
   29.7388   29.7388   29.7851   29.7851   30.2000   30.2013   30.2893   30.2906   31.0623   31.0631
   31.0865   31.0933   31.1384   31.1435   31.2944   31.2951   31.3364   31.3371   31.4132   31.4170
   31.5925   31.6046   31.6046   31.6441   31.6441   31.6573   31.9026   31.9026   31.9870   31.9870
   32.5992   32.5992   32.6452   32.6452   32.8104   32.8104   32.8790   32.8790   33.4126   33.4474
   33.4479   33.4506   33.4508   33.6230   34.1158   34.1160   34.1982   34.1985   34.2311   34.2311
   34.3255   34.3255   34.4748   34.4748   34.5544   34.5544   35.0017   35.0017   35.0236   35.0236
   35.3752   35.3752   35.4129   35.4129   36.6251   36.6451   36.6988   36.7018   37.1852   37.1867
   37.2464   37.2481   37.6541   37.6546   37.6725   37.6726   37.7222   37.7227   37.7308   37.7315
   38.2613   38.2613   38.3445   38.3445   38.4684   38.5199   38.6282   38.6282   38.7441   38.7441
   39.9125   39.9125   39.9979   39.9979   40.4502   40.4521   40.5974   40.5988   40.6521   40.7690
   40.8115   40.8126   40.9596   40.9608   40.9713   40.9715   41.1749   41.1990   41.2199   41.2199
   41.2403   41.2403   41.7054   41.7054   41.7736   41.7736   41.8134   41.8134   41.8372   41.8372
   42.1163   42.1191   43.0994   43.1020   43.1877   43.1911   43.7123   43.7123   43.7772   43.7772
   45.1526   45.1536   45.1728   45.1728   45.2223   45.2224   45.2708   45.2708   45.3187   45.3187
   45.3426   45.3426   46.5925   46.5927   46.6505   46.6507   46.6712   46.6712   46.6792   46.6792
   47.4084   47.4955   47.6077   47.6077   47.6317   47.6317   47.9258   47.9258   47.9627   47.9833
   47.9833   47.9852   48.0917   48.0917   48.1236   48.1236   48.1283   48.1283   48.1518   48.1518
   49.0134   49.0138   49.0450   49.0459   49.0523   49.0533   49.0635   49.0641   49.2338   49.2338
   49.2920   49.2920   49.7148   49.7572   49.8574   49.8574   49.9717   49.9717   50.2675   50.2677
   50.3128   50.3130   50.4382   50.4695   51.5091   51.5118   51.5828   51.5831   51.6303   51.6303
   51.6338   51.6338   51.8944   51.8944   51.8969   51.8969   51.9804   51.9804   52.0689   52.0689
   52.3770   52.4362   52.9439   52.9439   52.9565   52.9565   53.0634   53.0659   53.1046   53.1385
   53.2360   53.2360   53.2703   53.2703   53.3596   53.3596   53.4079   53.4079   53.4870   53.4902
   53.5264   53.5269   53.5857   53.5864   53.5928   53.5938   53.8426   53.8616   54.1077   54.1078
   54.1523   54.1535   54.2516   54.2516   54.3116   54.3116   54.3962   54.3978   54.5564   54.6195
   55.2463   55.2463   55.3165   55.3165   56.4975   56.5037   56.5043   56.5048   57.3891   57.5195
   57.9031   57.9508   57.9517   57.9718   57.9733   58.2289   59.3326   59.3326   59.3887   59.3888
   59.3888   59.3898   59.4314   59.4498   59.4498   59.4691   59.4702   59.4747   59.5390   59.5390
   59.7237   59.7237   59.7764   59.7764   60.9874   60.9874   61.0936   61.0936   61.2688   61.2688
   61.3661   61.3661   61.6320   61.6329   61.7503   61.7511   62.5926   62.5926   62.6638   62.6638
   62.7957   62.7957   62.8249   62.8249   63.1969   63.1983   63.3141   63.3145   63.3445   63.3471
   63.3664   63.3693   63.9093   63.9093   64.0460   64.0460   64.0783   64.0783   64.1592   64.1592
   64.3807   64.3827   64.5817   64.5826   65.3826   65.3826   65.4701   65.4701   66.0257   66.0269
   66.1378   66.1388   66.2412   66.3898   66.8595   66.9447   66.9447   66.9912   67.1332   67.1332
   67.9187   67.9822   68.0062   68.0062   68.0326   68.0326   68.2792   68.2805   68.2979   68.4402
   68.4417   68.5011   69.1097   69.1097   69.1353   69.1353   69.2483   69.2505   69.2881   69.2890
   69.5915   69.5946   69.6828   69.6874   69.8307   69.8307   69.9234   69.9234   70.6556   70.8250
   71.1479   71.1479   71.1898   71.1898   72.4176   72.4177   72.4451   72.4959   72.5186   72.5197
   73.0327   73.0350   73.1088   73.1109   73.4274   73.4274   73.5595   73.5595   73.8410   73.8990
   74.0097   74.0129   74.0668   74.0699   74.1632   74.1632   74.1647   74.1647   74.2217   74.2217
   74.3201   74.3201   74.4134   74.4134   74.4881   74.4881   75.9608   75.9827   76.2339   76.2339
   76.3286   76.3286   77.1076   77.1080   77.7862   77.7868   77.8394   77.8430   77.9310   77.9310
   78.0763   78.0763   78.3226   78.3228   78.4355   78.4357   78.6767   78.6767   78.7843   78.7843
   78.8728   78.8728   78.8922   78.9187   78.9187   79.0730   79.2529   79.2891   79.4760   79.4760
   79.5366   79.5366   80.1641   80.2178   80.2376   80.2451   80.7413   80.7413   80.8264   80.8264
   80.8384   80.8419   80.9292   80.9316   82.1115   82.1121   82.2385   82.2385   82.3145   82.3150
   82.3961   82.3961   83.2387   83.2387   83.3717   83.3717   83.7985   83.7999   83.8183   83.8191
   83.8353   83.8375   83.8494   83.8519   85.2413   85.3255   87.7359   87.7359   87.9296   87.9296
   88.8332   89.0180   89.5922   89.5922   89.6577   89.6577   90.1106   90.1106   90.5150   90.5150
   91.0272   91.1390   94.3160   94.3210   94.5847   94.5894   95.8959   95.8959   96.0371   96.0371
   98.8676   98.8701   99.0113   99.0154   99.4425   99.4425   99.7291   99.7291   99.9900   99.9900
  100.1137  100.1194  100.1521  100.1521  100.3423  101.0945  102.4227  102.4276  102.5781  102.5831
  103.1891  103.1891  103.3363  103.3363  105.0050  105.0061  105.3261  105.3278  105.8177  105.9741
  107.3851  107.5289  107.5290  107.7581  107.8840  107.8840  108.7666  108.7778  109.3115  109.3115
  109.4046  109.4106  109.4398  109.4398  109.8181  109.8207  110.4975  110.4975  111.0502  111.0502
  111.4272  111.4299  114.5405  114.5553  114.9887  115.0053  117.9029  117.9029  117.9214  117.9323
  118.2356  118.2448  118.6442  118.6442  123.5812  123.5813  124.1752  124.1752  124.5565  124.5611
  125.4856  125.4906  125.7229  125.7229  125.9956  125.9956  129.9361  129.9361  130.1106  130.1106
  135.4448  135.4455  135.7247  135.7266  135.7824  135.7826  136.6069  136.6070  137.2519  137.2632
  138.1363  138.1434  144.2735  144.6652  154.1731  155.1262  155.6376  155.6376  156.3905  156.3905
  157.3988  157.3989  157.9789  157.9789  158.4690  158.4725  159.0382  159.0415
siesta: PDOS info: 
siesta: e1, e2, sigma, nhist:   -20.00 eV   10.00 eV    0.20 eV    500

siesta: Program's energy decomposition (eV):
siesta: Ebs     =     -4832.543778
siesta: Eions   =     24537.348089
siesta: Ena     =      5084.414121
siesta: Ekin    =     10659.160673
siesta: Enl     =     -1102.639787
siesta: Eso     =         0.000000
siesta: Eldau   =         0.000000
siesta: DEna    =      -248.349325
siesta: DUscf   =        23.302535
siesta: DUext   =         0.000000
siesta: Exc     =     -5431.084408
siesta: eta*DQ  =         0.000000
siesta: Emadel  =         0.000000
siesta: Emeta   =         0.000000
siesta: Emolmec =         0.000000
siesta: Ekinion =         0.000000
siesta: Eharris =    -15552.544282
siesta: Etot    =    -15552.544280
siesta: FreeEng =    -15552.544280

siesta: Final energy (eV):
siesta:  Band Struct. =   -4832.543778
siesta:       Kinetic =   10659.160673
siesta:       Hartree =  334793.163733
siesta:       Eldau   =       0.000000
siesta:       Eso     =       0.000000
siesta:    Ext. field =       0.000000
siesta:   Exch.-corr. =   -5431.084408
siesta:  Ion-electron = -678960.597077
siesta:       Ion-ion =  323386.812800
siesta:       Ekinion =       0.000000
siesta:         Total =  -15552.544280
siesta:         Fermi =      -3.590287

siesta: Stress tensor (static) (eV/Ang**3):
siesta:    -0.000006    0.000000    0.000000
siesta:     0.000000   -0.000006    0.000000
siesta:     0.000000    0.000000   -0.002470

siesta: Cell volume =      99494.730000 Ang**3

siesta: Pressure (static):
siesta:                Solid            Molecule  Units
siesta:           0.00000901          0.00000901  Ry/Bohr**3
siesta:           0.00082710          0.00082710  eV/Ang**3
siesta:           1.32517942          1.32517942  kBar
(Free)E+ p_basis*V_orbitals  =      -15524.364264
(Free)Eharris+ p_basis*V_orbitals  =      -15524.364266

siesta: Electric dipole (a.u.)  =    0.000000    0.000000    0.000000
siesta: Electric dipole (Debye) =    0.000000    0.000000    0.000000

Hirshfeld Net Atomic Populations:
Atom #    Qatom  Species
     1    0.000  C                   
     2    0.000  C                   
     3    0.000  C                   
     4    0.000  C                   
     5    0.000  C                   
     6    0.000  C                   
     7    0.000  C                   
     8    0.000  C                   
     9    0.000  C                   
    10    0.000  C                   
    11    0.000  C                   
    12    0.000  C                   
    13    0.000  C                   
    14    0.000  C                   
    15    0.000  C                   
    16    0.000  C                   
    17    0.000  C                   
    18    0.000  C                   
    19    0.000  C                   
    20    0.000  C                   
    21    0.000  C                   
    22    0.000  C                   
    23    0.000  C                   
    24    0.000  C                   
    25    0.000  C                   
    26    0.000  C                   
    27    0.000  C                   
    28    0.000  C                   
    29    0.000  C                   
    30    0.000  C                   
    31    0.000  C                   
    32    0.000  C                   
    33   -0.000  C                   
    34   -0.000  C                   
    35   -0.000  C                   
    36   -0.000  C                   
    37   -0.000  C                   
    38   -0.000  C                   
    39   -0.000  C                   
    40   -0.000  C                   
    41   -0.000  C                   
    42   -0.000  C                   
    43   -0.000  C                   
    44   -0.000  C                   
    45   -0.000  C                   
    46   -0.000  C                   
    47   -0.000  C                   
    48   -0.000  C                   
    49   -0.000  C                   
    50   -0.000  C                   
    51   -0.000  C                   
    52   -0.000  C                   
    53   -0.000  C                   
    54   -0.000  C                   
    55   -0.000  C                   
    56   -0.000  C                   
    57   -0.000  C                   
    58   -0.000  C                   
    59   -0.000  C                   
    60   -0.000  C                   
    61   -0.000  C                   
    62   -0.000  C                   
    63   -0.000  C                   
    64   -0.000  C                   
    65    0.000  C                   
    66    0.000  C                   
    67    0.000  C                   
    68    0.000  C                   
    69    0.000  C                   
    70    0.000  C                   
    71    0.000  C                   
    72    0.000  C                   
    73    0.000  C                   
    74    0.000  C                   
    75    0.000  C                   
    76    0.000  C                   
    77    0.000  C                   
    78    0.000  C                   
    79    0.000  C                   
    80    0.000  C                   
    81   -0.000  C                   
    82   -0.000  C                   
    83   -0.000  C                   
    84   -0.000  C                   
    85   -0.000  C                   
    86   -0.000  C                   
    87   -0.000  C                   
    88   -0.000  C                   
    89    0.000  C                   
    90    0.000  C                   
    91    0.000  C                   
    92    0.000  C                   
    93    0.000  C                   
    94    0.000  C                   
    95    0.000  C                   
    96    0.000  C                   

Voronoi Net Atomic Populations:
Atom #    Qatom  Species
     1    0.003  C                   
     2    0.003  C                   
     3    0.003  C                   
     4    0.003  C                   
     5    0.003  C                   
     6    0.003  C                   
     7    0.003  C                   
     8    0.003  C                   
     9   -0.002  C                   
    10   -0.000  C                   
    11   -0.002  C                   
    12   -0.000  C                   
    13   -0.002  C                   
    14   -0.000  C                   
    15   -0.002  C                   
    16   -0.000  C                   
    17   -0.004  C                   
    18   -0.001  C                   
    19   -0.004  C                   
    20   -0.001  C                   
    21   -0.004  C                   
    22   -0.001  C                   
    23   -0.004  C                   
    24   -0.001  C                   
    25    0.005  C                   
    26    0.005  C                   
    27    0.005  C                   
    28    0.005  C                   
    29    0.005  C                   
    30    0.005  C                   
    31    0.005  C                   
    32    0.005  C                   
    33   -0.004  C                   
    34   -0.004  C                   
    35   -0.004  C                   
    36   -0.004  C                   
    37   -0.004  C                   
    38   -0.004  C                   
    39   -0.004  C                   
    40   -0.004  C                   
    41   -0.001  C                   
    42    0.001  C                   
    43   -0.001  C                   
    44    0.001  C                   
    45   -0.001  C                   
    46    0.001  C                   
    47   -0.001  C                   
    48    0.001  C                   
    49    0.003  C                   
    50    0.005  C                   
    51    0.003  C                   
    52    0.005  C                   
    53    0.003  C                   
    54    0.005  C                   
    55    0.003  C                   
    56    0.005  C                   
    57   -0.001  C                   
    58   -0.001  C                   
    59   -0.001  C                   
    60   -0.001  C                   
    61   -0.001  C                   
    62   -0.001  C                   
    63   -0.001  C                   
    64   -0.001  C                   
    65   -0.001  C                   
    66   -0.001  C                   
    67   -0.001  C                   
    68   -0.001  C                   
    69   -0.001  C                   
    70   -0.001  C                   
    71   -0.001  C                   
    72   -0.001  C                   
    73    0.003  C                   
    74    0.004  C                   
    75    0.003  C                   
    76    0.004  C                   
    77    0.003  C                   
    78    0.004  C                   
    79    0.003  C                   
    80    0.004  C                   
    81   -0.003  C                   
    82   -0.003  C                   
    83   -0.003  C                   
    84   -0.003  C                   
    85   -0.003  C                   
    86   -0.003  C                   
    87   -0.003  C                   
    88   -0.003  C                   
    89   -0.001  C                   
    90   -0.001  C                   
    91   -0.001  C                   
    92   -0.001  C                   
    93   -0.001  C                   
    94   -0.001  C                   
    95   -0.001  C                   
    96   -0.001  C                   
Bader Analysis core-charge setup. Radii (standard, H):  1.000 0.600

cite: Please see "SWNT.bib" for an exhaustive BiBTeX file.
cite: This calculation has made use of the following articles.
cite: Articles are encouraged to be cited in a published work.
        Primary SIESTA paper
          DOI: www.doi.org/10.1088/0953-8984/14/11/302                                     
 
>> End of run:   2-MAR-2020   1:15:56
Job completed
