fcc Si                                  
   3.90000000000000     
     0.500000    0.500000    0.000000
     0.000000    0.500000    0.500000
     0.500000    0.000000    0.500000
   Si
     1
Direct
  0.000000  0.000000  0.000000
 
   20   20   20
 0.99241E-01 0.27815      1.0541      2.6355      4.5109      5.7467      5.9063      5.3410      4.6494      4.1609    
  3.9818      4.1609      4.6494      5.3410      5.9063      5.7467      4.5109      2.6355      1.0541     0.27815    
 0.27815     0.76595      1.9973      3.7949      5.3511      5.9513      5.6257      4.9276      4.3250      3.9850    
  3.9850      4.3250      4.9276      5.6257      5.9513      5.3510      3.7949      1.9972     0.76595     0.27812    
  1.0541      1.9973      3.5225      5.0562      5.8749      5.7685      5.1283      4.4561      3.9926      3.8258    
  3.9926      4.4561      5.1283      5.7685      5.8749      5.0562      3.5225      1.9972      1.0541     0.76595    
  2.6355      3.7949      5.0562      5.8273      5.8153      5.2418      4.5452      4.0001      3.7014      3.7014    
  4.0001      4.5452      5.2418      5.8153      5.8274      5.0562      3.7949      2.6355      1.9972      1.9972    
  4.5109      5.3511      5.8749      5.8153      5.2773      4.5897      4.0050      3.6185      3.4869      3.6185    
  4.0051      4.5897      5.2774      5.8152      5.8750      5.3511      4.5109      3.7949      3.5225      3.7949    
  5.7467      5.9513      5.7685      5.2418      4.5897      4.0067      3.5779      3.3586      3.3586      3.5779    
  4.0068      4.5897      5.2418      5.7685      5.9513      5.7467      5.3511      5.0562      5.0562      5.3510    
  5.9063      5.6257      5.1283      4.5452      4.0050      3.5779      3.3162      3.2295      3.3162      3.5779    
  4.0051      4.5452      5.1283      5.6257      5.9063      5.9513      5.8750      5.8274      5.8749      5.9513    
  5.3410      4.9276      4.4561      4.0001      3.6185      3.3586      3.2295      3.2295      3.3586      3.6185    
  4.0001      4.4561      4.9276      5.3411      5.6257      5.7685      5.8152      5.8153      5.7685      5.6257    
  4.6494      4.3250      3.9926      3.7014      3.4869      3.3586      3.3162      3.3586      3.4869      3.7014    
  3.9926      4.3250      4.6494      4.9276      5.1283      5.2418      5.2774      5.2418      5.1283      4.9276    
  4.1609      3.9850      3.8258      3.7014      3.6185      3.5779      3.5779      3.6185      3.7014      3.8259    
  3.9850      4.1608      4.3250      4.4561      4.5452      4.5897      4.5897      4.5452      4.4561      4.3250    
  3.9818      3.9850      3.9926      4.0001      4.0051      4.0068      4.0051      4.0001      3.9926      3.9850    
  3.9819      3.9850      3.9926      4.0001      4.0051      4.0068      4.0051      4.0001      3.9926      3.9850    
  4.1609      4.3250      4.4561      4.5452      4.5897      4.5897      4.5452      4.4561      4.3250      4.1608    
  3.9850      3.8259      3.7014      3.6185      3.5779      3.5779      3.6185      3.7014      3.8258      3.9850    
  4.6494      4.9276      5.1283      5.2418      5.2774      5.2418      5.1283      4.9276      4.6494      4.3250    
  3.9926      3.7014      3.4869      3.3586      3.3162      3.3586      3.4869      3.7014      3.9926      4.3250    
  5.3410      5.6257      5.7685      5.8153      5.8152      5.7685      5.6257      5.3411      4.9276      4.4561    
  4.0001      3.6185      3.3586      3.2295      3.2295      3.3586      3.6185      4.0001      4.4561      4.9276    
  5.9063      5.9513      5.8749      5.8274      5.8750      5.9513      5.9063      5.6257      5.1283      4.5452    
  4.0051      3.5779      3.3162      3.2295      3.3162      3.5779      4.0050      4.5452      5.1283      5.6257    
  5.7467      5.3510      5.0562      5.0562      5.3511      5.7467      5.9513      5.7685      5.2418      4.5897    
  4.0068      3.5779      3.3586      3.3586      3.5779      4.0067      4.5897      5.2418      5.7685      5.9513    
  4.5109      3.7949      3.5225      3.7949      4.5109      5.3511      5.8750      5.8152      5.2774      4.5897    
  4.0051      3.6185      3.4869      3.6185      4.0050      4.5897      5.2773      5.8153      5.8749      5.3511    
  2.6355      1.9972      1.9972      2.6355      3.7949      5.0562      5.8274      5.8153      5.2418      4.5452    
  4.0001      3.7014      3.7014      4.0001      4.5452      5.2418      5.8153      5.8273      5.0562      3.7949    
  1.0541     0.76595      1.0541      1.9972      3.5225      5.0562      5.8749      5.7685      5.1283      4.4561    
  3.9926      3.8258      3.9926      4.4561      5.1283      5.7685      5.8749      5.0562      3.5225      1.9973    
 0.27815     0.27812     0.76595      1.9972      3.7949      5.3510      5.9513      5.6257      4.9276      4.3250    
  3.9850      3.9850      4.3250      4.9276      5.6257      5.9513      5.3511      3.7949      1.9973     0.76595    
 0.27815     0.76595      1.9973      3.7949      5.3511      5.9513      5.6257      4.9276      4.3250      3.9850    
  3.9850      4.3250      4.9276      5.6257      5.9513      5.3510      3.7949      1.9972     0.76595     0.27812    
 0.76595      1.6818      3.2507      4.9079      5.8616      5.8360      5.2156      4.5350      4.0624      3.8914    
  4.0624      4.5349      5.2156      5.8360      5.8616      4.9079      3.2507      1.6817     0.76592     0.50172    
  1.9973      3.2507      4.7257      5.7490      5.9123      5.3995      4.6940      4.1285      3.8153      3.8153    
  4.1285      4.6940      5.3995      5.9123      5.7490      4.7257      3.2507      1.9972      1.3512      1.3512    
  3.7949      4.9079      5.7490      5.9259      5.4839      4.7912      4.1751      3.7622      3.6194      3.7622    
  4.1751      4.7912      5.4839      5.9259      5.7490      4.9079      3.7949      2.9272      2.6120      2.9272    
  5.3511      5.8616      5.9123      5.4839      4.8235      4.1988      3.7320      3.4880      3.4880      3.7320    
  4.1988      4.8236      5.4839      5.9122      5.8617      5.3511      4.6896      4.2494      4.2494      4.6896    
  5.9513      5.8360      5.3995      4.7912      4.1988      3.7223      3.4231      3.3238      3.4231      3.7223    
  4.1988      4.7912      5.3995      5.8360      5.9513      5.7786      5.5229      5.4071      5.5229      5.7786    
  5.6257      5.2156      4.6940      4.1751      3.7320      3.4231      3.2695      3.2695      3.4232      3.7320    
  4.1751      4.6940      5.2156      5.6257      5.8417      5.8853      5.8612      5.8612      5.8853      5.8417    
  4.9276      4.5350      4.1285      3.7622      3.4880      3.3238      3.2695      3.3238      3.4880      3.7622    
  4.1285      4.5349      4.9276      5.2481      5.4553      5.5548      5.5816      5.5548      5.4553      5.2481    
  4.3250      4.0624      3.8153      3.6194      3.4880      3.4231      3.4232      3.4880      3.6195      3.8153    
  4.0624      4.3251      4.5631      4.7517      4.8760      4.9353      4.9353      4.8761      4.7517      4.5631    
  3.9850      3.8914      3.8153      3.7622      3.7320      3.7223      3.7320      3.7622      3.8153      3.8914    
  3.9850      4.0836      4.1696      4.2320      4.2686      4.2806      4.2686      4.2320      4.1696      4.0837    
  3.9850      4.0624      4.1285      4.1751      4.1988      4.1988      4.1751      4.1285      4.0624      3.9850    
  3.9090      3.8440      3.7951      3.7630      3.7471      3.7471      3.7629      3.7951      3.8440      3.9090    
  4.3250      4.5349      4.6940      4.7912      4.8236      4.7912      4.6940      4.5349      4.3251      4.0836    
  3.8440      3.6411      3.4924      3.4035      3.3742      3.4035      3.4924      3.6410      3.8440      4.0837    
  4.9276      5.2156      5.3995      5.4839      5.4839      5.3995      5.2156      4.9276      4.5631      4.1696    
  3.7951      3.4924      3.2886      3.1874      3.1874      3.2886      3.4924      3.7951      4.1696      4.5631    
  5.6257      5.8360      5.9123      5.9259      5.9122      5.8360      5.6257      5.2481      4.7517      4.2320    
  3.7630      3.4035      3.1874      3.1159      3.1874      3.4035      3.7630      4.2320      4.7517      5.2481    
  5.9513      5.8616      5.7490      5.7490      5.8617      5.9513      5.8417      5.4553      4.8760      4.2686    
  3.7471      3.3742      3.1874      3.1874      3.3742      3.7471      4.2686      4.8760      5.4553      5.8417    
  5.3510      4.9079      4.7257      4.9079      5.3511      5.7786      5.8853      5.5548      4.9353      4.2806    
  3.7471      3.4035      3.2886      3.4035      3.7471      4.2806      4.9353      5.5548      5.8853      5.7786    
  3.7949      3.2507      3.2507      3.7949      4.6896      5.5229      5.8612      5.5816      4.9353      4.2686    
  3.7629      3.4924      3.4924      3.7630      4.2686      4.9353      5.5816      5.8612      5.5229      4.6896    
  1.9972      1.6817      1.9972      2.9272      4.2494      5.4071      5.8612      5.5548      4.8761      4.2320    
  3.7951      3.6410      3.7951      4.2320      4.8760      5.5548      5.8612      5.4071      4.2494      2.9272    
 0.76595     0.76592      1.3512      2.6120      4.2494      5.5229      5.8853      5.4553      4.7517      4.1696    
  3.8440      3.8440      4.1696      4.7517      5.4553      5.8853      5.5229      4.2494      2.6120      1.3512    
 0.27812     0.50172      1.3512      2.9272      4.6896      5.7786      5.8417      5.2481      4.5631      4.0837    
  3.9090      4.0837      4.5631      5.2481      5.8417      5.7786      4.6896      2.9272      1.3512     0.50172    
  1.0541      1.9973      3.5225      5.0562      5.8749      5.7685      5.1283      4.4561      3.9926      3.8258    
  3.9926      4.4561      5.1283      5.7685      5.8749      5.0562      3.5224      1.9972      1.0541     0.76595    
  1.9973      3.2507      4.7257      5.7490      5.9123      5.3995      4.6940      4.1285      3.8153      3.8153    
  4.1285      4.6940      5.3995      5.9123      5.7490      4.7257      3.2507      1.9972      1.3512      1.3512    
  3.5225      4.7257      5.6823      5.9518      5.5517      4.8610      4.2344      3.8128      3.6661      3.8128    
  4.2345      4.8610      5.5517      5.9518      5.6823      4.7257      3.5225      2.6120      2.2870      2.6120    
  5.0562      5.7490      5.9518      5.5989      4.9456      4.3008      3.8150      3.5580      3.5580      3.8149    
  4.3008      4.9456      5.5989      5.9518      5.7490      5.0562      4.2494      3.7355      3.7355      4.2494    
  5.8749      5.9123      5.5517      4.9456      4.3234      3.8174      3.4944      3.3867      3.4944      3.8174    
  4.3233      4.9456      5.5516      5.9122      5.8749      5.5229      5.1297      4.9634      5.1297      5.5229    
  5.7685      5.3995      4.8610      4.3008      3.8174      3.4737      3.3020      3.3020      3.4737      3.8174    
  4.3008      4.8610      5.3995      5.7685      5.8853      5.8134      5.7132      5.7131      5.8133      5.8853    
  5.1283      4.6940      4.2344      3.8150      3.4944      3.3020      3.2384      3.3020      3.4944      3.8150    
  4.2345      4.6940      5.1283      5.4553      5.6329      5.6926      5.7013      5.6926      5.6329      5.4553    
  4.4561      4.1285      3.8128      3.5580      3.3867      3.3020      3.3020      3.3867      3.5580      3.8128    
  4.1285      4.4561      4.7517      4.9790      5.1193      5.1813      5.1813      5.1193      4.9790      4.7517    
  3.9926      3.8153      3.6661      3.5580      3.4944      3.4737      3.4944      3.5580      3.6661      3.8153    
  3.9926      4.1696      4.3184      4.4261      4.4892      4.5097      4.4893      4.4261      4.3184      4.1696    
  3.8258      3.8153      3.8128      3.8149      3.8174      3.8174      3.8150      3.8128      3.8153      3.8259    
  3.8440      3.8658      3.8843      3.8960      3.9012      3.9012      3.8960      3.8843      3.8659      3.8440    
  3.9926      4.1285      4.2345      4.3008      4.3233      4.3008      4.2345      4.1285      3.9926      3.8440    
  3.7042      3.5875      3.5024      3.4518      3.4351      3.4518      3.5025      3.5875      3.7041      3.8440    
  4.4561      4.6940      4.8610      4.9456      4.9456      4.8610      4.6940      4.4561      4.1696      3.8658    
  3.5875      3.3679      3.2201      3.1467      3.1467      3.2201      3.3679      3.5875      3.8659      4.1696    
  5.1283      5.3995      5.5517      5.5989      5.5516      5.3995      5.1283      4.7517      4.3184      3.8843    
  3.5024      3.2201      3.0511      2.9952      3.0511      3.2201      3.5025      3.8843      4.3184      4.7517    
  5.7685      5.9123      5.9518      5.9518      5.9122      5.7685      5.4553      4.9790      4.4261      3.8960    
  3.4518      3.1467      2.9952      2.9952      3.1467      3.4519      3.8960      4.4261      4.9790      5.4553    
  5.8749      5.7490      5.6823      5.7490      5.8749      5.8853      5.6329      5.1193      4.4892      3.9012    
  3.4351      3.1467      3.0511      3.1467      3.4351      3.9011      4.4893      5.1193      5.6329      5.8854    
  5.0562      4.7257      4.7257      5.0562      5.5229      5.8134      5.6926      5.1813      4.5097      3.9012    
  3.4518      3.2201      3.2201      3.4519      3.9011      4.5097      5.1812      5.6926      5.8133      5.5229    
  3.5224      3.2507      3.5225      4.2494      5.1297      5.7132      5.7013      5.1813      4.4893      3.8960    
  3.5025      3.3679      3.5025      3.8960      4.4893      5.1812      5.7013      5.7131      5.1297      4.2494    
  1.9972      1.9972      2.6120      3.7355      4.9634      5.7131      5.6926      5.1193      4.4261      3.8843    
  3.5875      3.5875      3.8843      4.4261      5.1193      5.6926      5.7131      4.9634      3.7355      2.6120    
  1.0541      1.3512      2.2870      3.7355      5.1297      5.8133      5.6329      4.9790      4.3184      3.8659    
  3.7041      3.8659      4.3184      4.9790      5.6329      5.8133      5.1297      3.7355      2.2870      1.3512    
 0.76595      1.3512      2.6120      4.2494      5.5229      5.8853      5.4553      4.7517      4.1696      3.8440    
  3.8440      4.1696      4.7517      5.4553      5.8854      5.5229      4.2494      2.6120      1.3512     0.76591    
  2.6355      3.7949      5.0562      5.8273      5.8153      5.2418      4.5452      4.0001      3.7014      3.7014    
  4.0001      4.5452      5.2418      5.8153      5.8274      5.0562      3.7949      2.6355      1.9972      1.9972    
  3.7949      4.9079      5.7490      5.9259      5.4839      4.7912      4.1751      3.7622      3.6194      3.7622    
  4.1751      4.7912      5.4839      5.9259      5.7490      4.9079      3.7949      2.9271      2.6120      2.9272    
  5.0562      5.7490      5.9518      5.5989      4.9456      4.3008      3.8150      3.5580      3.5580      3.8149    
  4.3008      4.9456      5.5989      5.9518      5.7490      5.0562      4.2494      3.7355      3.7355      4.2494    
  5.8273      5.9259      5.5989      4.9977      4.3663      3.8506      3.5195      3.4089      3.5195      3.8506    
  4.3662      4.9978      5.5989      5.9259      5.8274      5.4071      4.9634      4.7791      4.9634      5.4071    
  5.8153      5.4839      4.9456      4.3663      3.8632      3.5017      3.3205      3.3205      3.5017      3.8632    
  4.3662      4.9456      5.4839      5.8152      5.8612      5.7131      5.5648      5.5648      5.7131      5.8612    
  5.2418      4.7912      4.3008      3.8506      3.5017      3.2915      3.2219      3.2915      3.5017      3.8506    
  4.3008      4.7912      5.2419      5.5548      5.6926      5.7104      5.7015      5.7103      5.6926      5.5548    
  4.5452      4.1751      3.8150      3.5195      3.3205      3.2219      3.2219      3.3205      3.5195      3.8150    
  4.1751      4.5452      4.8761      5.1193      5.2577      5.3126      5.3126      5.2577      5.1193      4.8760    
  4.0001      3.7622      3.5580      3.4089      3.3205      3.2915      3.3205      3.4089      3.5580      3.7622    
  4.0001      4.2320      4.4261      4.5657      4.6456      4.6708      4.6456      4.5657      4.4261      4.2320    
  3.7014      3.6194      3.5580      3.5195      3.5017      3.5017      3.5195      3.5580      3.6195      3.7014    
  3.7951      3.8843      3.9538      3.9981      4.0190      4.0190      3.9981      3.9538      3.8843      3.7951    
  3.7014      3.7622      3.8149      3.8506      3.8632      3.8506      3.8150      3.7622      3.7014      3.6411    
  3.5875      3.5443      3.5131      3.4939      3.4873      3.4939      3.5131      3.5444      3.5875      3.6410    
  4.0001      4.1751      4.3008      4.3662      4.3662      4.3008      4.1751      4.0001      3.7951      3.5875    
  3.4029      3.2571      3.1584      3.1092      3.1092      3.1584      3.2571      3.4028      3.5875      3.7951    
  4.5452      4.7912      4.9456      4.9978      4.9456      4.7912      4.5452      4.2320      3.8843      3.5443    
  3.2571      3.0465      2.9202      2.8783      2.9202      3.0465      3.2571      3.5444      3.8843      4.2320    
  5.2418      5.4839      5.5989      5.5989      5.4839      5.2419      4.8761      4.4261      3.9538      3.5131    
  3.1584      2.9202      2.8020      2.8019      2.9202      3.1584      3.5131      3.9538      4.4261      4.8761    
  5.8153      5.9259      5.9518      5.9259      5.8152      5.5548      5.1193      4.5657      3.9981      3.4939    
  3.1092      2.8783      2.8019      2.8783      3.1092      3.4939      3.9981      4.5657      5.1193      5.5548    
  5.8274      5.7490      5.7490      5.8274      5.8612      5.6926      5.2577      4.6456      4.0190      3.4873    
  3.1092      2.9202      2.9202      3.1092      3.4873      4.0190      4.6456      5.2577      5.6926      5.8612    
  5.0562      4.9079      5.0562      5.4071      5.7131      5.7104      5.3126      4.6708      4.0190      3.4939    
  3.1584      3.0465      3.1584      3.4939      4.0190      4.6708      5.3127      5.7103      5.7131      5.4071    
  3.7949      3.7949      4.2494      4.9634      5.5648      5.7015      5.3126      4.6456      3.9981      3.5131    
  3.2571      3.2571      3.5131      3.9981      4.6456      5.3127      5.7014      5.5648      4.9634      4.2493    
  2.6355      2.9271      3.7355      4.7791      5.5648      5.7103      5.2577      4.5657      3.9538      3.5444    
  3.4028      3.5444      3.9538      4.5657      5.2577      5.7103      5.5648      4.7791      3.7355      2.9272    
  1.9972      2.6120      3.7355      4.9634      5.7131      5.6926      5.1193      4.4261      3.8843      3.5875    
  3.5875      3.8843      4.4261      5.1193      5.6926      5.7131      4.9634      3.7355      2.6120      1.9972    
  1.9972      2.9272      4.2494      5.4071      5.8612      5.5548      4.8760      4.2320      3.7951      3.6410    
  3.7951      4.2320      4.8761      5.5548      5.8612      5.4071      4.2493      2.9272      1.9972      1.6817    
  4.5109      5.3510      5.8749      5.8153      5.2773      4.5897      4.0050      3.6185      3.4869      3.6185    
  4.0051      4.5897      5.2774      5.8152      5.8750      5.3511      4.5109      3.7949      3.5224      3.7949    
  5.3510      5.8616      5.9123      5.4839      4.8236      4.1988      3.7320      3.4880      3.4880      3.7320    
  4.1988      4.8236      5.4839      5.9122      5.8617      5.3511      4.6896      4.2494      4.2494      4.6896    
  5.8749      5.9123      5.5516      4.9456      4.3234      3.8174      3.4944      3.3867      3.4944      3.8174    
  4.3233      4.9456      5.5516      5.9122      5.8749      5.5229      5.1297      4.9634      5.1297      5.5229    
  5.8153      5.4839      4.9456      4.3663      3.8632      3.5017      3.3205      3.3205      3.5017      3.8632    
  4.3662      4.9456      5.4839      5.8152      5.8612      5.7131      5.5648      5.5648      5.7131      5.8612    
  5.2773      4.8236      4.3234      3.8632      3.5049      3.2885      3.2170      3.2886      3.5049      3.8632    
  4.3233      4.8236      5.2774      5.5816      5.7013      5.7015      5.6853      5.7014      5.7013      5.5816    
  4.5897      4.1988      3.8174      3.5017      3.2885      3.1830      3.1830      3.2886      3.5017      3.8174    
  4.1988      4.5897      4.9354      5.1813      5.3126      5.3603      5.3603      5.3127      5.1812      4.9353    
  4.0050      3.7320      3.4944      3.3205      3.2170      3.1830      3.2170      3.3205      3.4944      3.7320    
  4.0051      4.2686      4.4892      4.6456      4.7325      4.7594      4.7325      4.6456      4.4893      4.2686    
  3.6185      3.4880      3.3867      3.3205      3.2886      3.2886      3.3205      3.3867      3.4880      3.6185    
  3.7630      3.8960      3.9981      4.0637      4.0950      4.0951      4.0637      3.9981      3.8960      3.7630    
  3.4869      3.4880      3.4944      3.5017      3.5049      3.5017      3.4944      3.4880      3.4869      3.4924    
  3.5024      3.5131      3.5198      3.5222      3.5226      3.5222      3.5198      3.5131      3.5025      3.4924    
  3.6185      3.7320      3.8174      3.8632      3.8632      3.8174      3.7320      3.6185      3.4924      3.3679    
  3.2571      3.1686      3.1077      3.0770      3.0770      3.1078      3.1685      3.2571      3.3679      3.4924    
  4.0051      4.1988      4.3233      4.3662      4.3233      4.1988      4.0051      3.7630      3.5024      3.2571    
  3.0509      2.8983      2.8058      2.7750      2.8058      2.8983      3.0509      3.2571      3.5025      3.7629    
  4.5897      4.8236      4.9456      4.9456      4.8236      4.5897      4.2686      3.8960      3.5131      3.1686    
  2.8983      2.7160      2.6252      2.6252      2.7160      2.8983      3.1685      3.5131      3.8960      4.2686    
  5.2774      5.4839      5.5516      5.4839      5.2774      4.9354      4.4892      3.9981      3.5198      3.1077    
  2.8058      2.6252      2.5655      2.6252      2.8058      3.1078      3.5198      3.9981      4.4893      4.9353    
  5.8152      5.9122      5.9122      5.8152      5.5816      5.1813      4.6456      4.0637      3.5222      3.0770    
  2.7750      2.6252      2.6252      2.7749      3.0770      3.5222      4.0637      4.6456      5.1813      5.5816    
  5.8750      5.8617      5.8749      5.8612      5.7013      5.3126      4.7325      4.0950      3.5226      3.0770    
  2.8058      2.7160      2.8058      3.0770      3.5226      4.0951      4.7325      5.3126      5.7013      5.8612    
  5.3511      5.3511      5.5229      5.7131      5.7015      5.3603      4.7594      4.0951      3.5222      3.1078    
  2.8983      2.8983      3.1078      3.5222      4.0951      4.7594      5.3603      5.7015      5.7132      5.5229    
  4.5109      4.6896      5.1297      5.5648      5.6853      5.3603      4.7325      4.0637      3.5198      3.1685    
  3.0509      3.1685      3.5198      4.0637      4.7325      5.3603      5.6853      5.5648      5.1297      4.6896    
  3.7949      4.2494      4.9634      5.5648      5.7014      5.3127      4.6456      3.9981      3.5131      3.2571    
  3.2571      3.5131      3.9981      4.6456      5.3126      5.7015      5.5648      4.9634      4.2494      3.7949    
  3.5224      4.2494      5.1297      5.7131      5.7013      5.1812      4.4893      3.8960      3.5025      3.3679    
  3.5025      3.8960      4.4893      5.1813      5.7013      5.7132      5.1297      4.2494      3.5224      3.2507    
  3.7949      4.6896      5.5229      5.8612      5.5816      4.9353      4.2686      3.7630      3.4924      3.4924    
  3.7629      4.2686      4.9353      5.5816      5.8612      5.5229      4.6896      3.7949      3.2507      3.2507    
  5.7467      5.9513      5.7685      5.2418      4.5897      4.0067      3.5779      3.3586      3.3586      3.5779    
  4.0068      4.5897      5.2418      5.7685      5.9513      5.7467      5.3511      5.0562      5.0562      5.3511    
  5.9513      5.8360      5.3995      4.7912      4.1988      3.7223      3.4231      3.3238      3.4231      3.7223    
  4.1988      4.7912      5.3995      5.8360      5.9513      5.7786      5.5230      5.4071      5.5229      5.7786    
  5.7685      5.3995      4.8610      4.3008      3.8174      3.4737      3.3020      3.3020      3.4737      3.8174    
  4.3008      4.8610      5.3995      5.7685      5.8853      5.8134      5.7131      5.7131      5.8134      5.8853    
  5.2418      4.7912      4.3008      3.8506      3.5017      3.2915      3.2219      3.2915      3.5017      3.8506    
  4.3008      4.7912      5.2419      5.5548      5.6926      5.7104      5.7015      5.7104      5.6926      5.5548    
  4.5897      4.1988      3.8174      3.5017      3.2885      3.1830      3.1830      3.2886      3.5017      3.8174    
  4.1988      4.5897      4.9354      5.1813      5.3126      5.3603      5.3603      5.3127      5.1812      4.9353    
  4.0067      3.7223      3.4737      3.2915      3.1830      3.1473      3.1830      3.2915      3.4737      3.7223    
  4.0068      4.2806      4.5097      4.6708      4.7594      4.7865      4.7594      4.6708      4.5097      4.2806    
  3.5779      3.4231      3.3020      3.2219      3.1830      3.1830      3.2219      3.3020      3.4232      3.5779    
  3.7471      3.9012      4.0190      4.0950      4.1313      4.1313      4.0951      4.0190      3.9011      3.7471    
  3.3586      3.3238      3.3020      3.2915      3.2886      3.2915      3.3020      3.3238      3.3586      3.4035    
  3.4518      3.4939      3.5222      3.5367      3.5409      3.5367      3.5222      3.4939      3.4519      3.4035    
  3.3586      3.4231      3.4737      3.5017      3.5017      3.4737      3.4232      3.3586      3.2886      3.2201    
  3.1584      3.1077      3.0716      3.0527      3.0527      3.0716      3.1078      3.1584      3.2201      3.2886    
  3.5779      3.7223      3.8174      3.8506      3.8174      3.7223      3.5779      3.4035      3.2201      3.0465    
  2.8983      2.7863      2.7171      2.6937      2.7171      2.7862      2.8983      3.0465      3.2201      3.4035    
  4.0068      4.1988      4.3008      4.3008      4.1988      4.0068      3.7471      3.4518      3.1584      2.8983    
  2.6918      2.5507      2.4795      2.4795      2.5507      2.6918      2.8983      3.1584      3.4518      3.7471    
  4.5897      4.7912      4.8610      4.7912      4.5897      4.2806      3.9012      3.4939      3.1077      2.7863    
  2.5507      2.4087      2.3615      2.4087      2.5507      2.7862      3.1078      3.4939      3.9012      4.2806    
  5.2418      5.3995      5.3995      5.2419      4.9354      4.5097      4.0190      3.5222      3.0716      2.7171    
  2.4795      2.3615      2.3615      2.4795      2.7171      3.0716      3.5222      4.0190      4.5097      4.9353    
  5.7685      5.8360      5.7685      5.5548      5.1813      4.6708      4.0950      3.5367      3.0527      2.6937    
  2.4795      2.4087      2.4795      2.6937      3.0527      3.5367      4.0951      4.6708      5.1813      5.5548    
  5.9513      5.9513      5.8853      5.6926      5.3126      4.7594      4.1313      3.5409      3.0527      2.7171    
  2.5507      2.5507      2.7171      3.0527      3.5409      4.1313      4.7594      5.3126      5.6926      5.8853    
  5.7467      5.7786      5.8134      5.7104      5.3603      4.7865      4.1313      3.5367      3.0716      2.7862    
  2.6918      2.7862      3.0716      3.5367      4.1313      4.7865      5.3603      5.7104      5.8134      5.7786    
  5.3511      5.5230      5.7131      5.7015      5.3603      4.7594      4.0951      3.5222      3.1078      2.8983    
  2.8983      3.1078      3.5222      4.0951      4.7594      5.3603      5.7015      5.7131      5.5229      5.3511    
  5.0562      5.4071      5.7131      5.7104      5.3127      4.6708      4.0190      3.4939      3.1584      3.0465    
  3.1584      3.4939      4.0190      4.6708      5.3126      5.7104      5.7131      5.4071      5.0562      4.9079    
  5.0562      5.5229      5.8134      5.6926      5.1812      4.5097      3.9011      3.4519      3.2201      3.2201    
  3.4518      3.9012      4.5097      5.1813      5.6926      5.8134      5.5229      5.0562      4.7257      4.7257    
  5.3511      5.7786      5.8853      5.5548      4.9353      4.2806      3.7471      3.4035      3.2886      3.4035    
  3.7471      4.2806      4.9353      5.5548      5.8853      5.7786      5.3511      4.9079      4.7257      4.9079    
  5.9063      5.6257      5.1283      4.5452      4.0050      3.5779      3.3162      3.2295      3.3162      3.5779    
  4.0051      4.5452      5.1283      5.6257      5.9063      5.9513      5.8749      5.8274      5.8749      5.9513    
  5.6257      5.2156      4.6940      4.1751      3.7320      3.4231      3.2695      3.2695      3.4232      3.7320    
  4.1751      4.6940      5.2156      5.6257      5.8417      5.8853      5.8612      5.8612      5.8853      5.8417    
  5.1283      4.6940      4.2344      3.8150      3.4944      3.3020      3.2384      3.3020      3.4944      3.8150    