fcc Si                                  
   3.90000000000000     
     0.500000    0.500000    0.000000
     0.000000    0.500000    0.500000
     0.500000    0.000000    0.500000
   Si
     1
Direct
  0.000000  0.000000  0.000000
 
   20   20   20
 0.99240965389E-01 0.27815298539E+00 0.10540849748E+01 0.26355024466E+01 0.45108835671E+01
 0.57466773310E+01 0.59062927607E+01 0.53410492467E+01 0.46494285927E+01 0.41608554836E+01
 0.39818019020E+01 0.41608554836E+01 0.46494285927E+01 0.53410492467E+01 0.59062927607E+01
 0.57466773310E+01 0.45108835671E+01 0.26355024466E+01 0.10540849748E+01 0.27815298539E+00
 0.27815298539E+00 0.76594686652E+00 0.19973112915E+01 0.37948919301E+01 0.53510560350E+01
 0.59512705842E+01 0.56256815392E+01 0.49276390563E+01 0.43249899976E+01 0.39849963491E+01
 0.39849763516E+01 0.43250072177E+01 0.49276299993E+01 0.56256931097E+01 0.59512849260E+01
 0.53510409247E+01 0.37948879852E+01 0.19972242430E+01 0.76595268321E+00 0.27811777100E+00
 0.10540849748E+01 0.19973112915E+01 0.35224567593E+01 0.50562473161E+01 0.58749114064E+01
 0.57685222882E+01 0.51283215652E+01 0.44560731394E+01 0.39926111951E+01 0.38258415013E+01
 0.39925975867E+01 0.44560640908E+01 0.51283454999E+01 0.57685186556E+01 0.58749270371E+01
 0.50562082990E+01 0.35224541669E+01 0.19972406880E+01 0.10540630363E+01 0.76595268321E+00
 0.26355024466E+01 0.37948919301E+01 0.50562473161E+01 0.58273369479E+01 0.58152678045E+01
 0.52418115889E+01 0.45452439306E+01 0.40000770148E+01 0.37013571048E+01 0.37013837380E+01
 0.40000624603E+01 0.45452321699E+01 0.52418305798E+01 0.58152787992E+01 0.58273607709E+01
 0.50562275704E+01 0.37948755781E+01 0.26354728257E+01 0.19972406880E+01 0.19972242430E+01
 0.45108835671E+01 0.53510560350E+01 0.58749114064E+01 0.58152678045E+01 0.52773205389E+01
 0.45897164811E+01 0.40050377694E+01 0.36185111185E+01 0.34869338647E+01 0.36184897373E+01
 0.40050723114E+01 0.45896721320E+01 0.52773590843E+01 0.58152283857E+01 0.58749569827E+01
 0.53510546151E+01 0.45109145523E+01 0.37948755781E+01 0.35224541669E+01 0.37948879852E+01
 0.57466773310E+01 0.59512705842E+01 0.57685222882E+01 0.52418115889E+01 0.45897164811E+01
 0.40067450645E+01 0.35778931604E+01 0.33585624532E+01 0.33585694130E+01 0.35778780308E+01
 0.40067758888E+01 0.45896814759E+01 0.52418488620E+01 0.57685114652E+01 0.59512776732E+01
 0.57467012694E+01 0.53510546151E+01 0.50562275704E+01 0.50562082990E+01 0.53510409247E+01
 0.59062927607E+01 0.56256815392E+01 0.51283215652E+01 0.45452439306E+01 0.40050377694E+01
 0.35778931604E+01 0.33161636502E+01 0.32294614780E+01 0.33161824161E+01 0.35778669613E+01
 0.40050774357E+01 0.45451781196E+01 0.51283339583E+01 0.56256751497E+01 0.59062896129E+01
 0.59512776732E+01 0.58749569827E+01 0.58273607709E+01 0.58749270371E+01 0.59512849260E+01
 0.53410492467E+01 0.49276390563E+01 0.44560731394E+01 0.40000770148E+01 0.36185111185E+01
 0.33585624532E+01 0.32294614780E+01 0.32294551193E+01 0.33585732728E+01 0.36184912484E+01
 0.40001024867E+01 0.44560785222E+01 0.49275821698E+01 0.53410668592E+01 0.56256751497E+01
 0.57685114652E+01 0.58152283857E+01 0.58152787992E+01 0.57685186556E+01 0.56256931097E+01
 0.46494285927E+01 0.43249899976E+01 0.39926111951E+01 0.37013571048E+01 0.34869338647E+01
 0.33585694130E+01 0.33161824161E+01 0.33585732728E+01 0.34869481495E+01 0.37013553403E+01
 0.39925557878E+01 0.43250478239E+01 0.46494008094E+01 0.49275821698E+01 0.51283339583E+01
 0.52418488620E+01 0.52773590843E+01 0.52418305798E+01 0.51283454999E+01 0.49276299993E+01
 0.41608554836E+01 0.39849963491E+01 0.38258415013E+01 0.37013837380E+01 0.36184897373E+01
 0.35778780308E+01 0.35778669613E+01 0.36184912484E+01 0.37013553403E+01 0.38259340005E+01
 0.39849635741E+01 0.41608346453E+01 0.43250478239E+01 0.44560785222E+01 0.45451781196E+01
 0.45896814759E+01 0.45896721320E+01 0.45452321699E+01 0.44560640908E+01 0.43250072177E+01
 0.39818019020E+01 0.39849763516E+01 0.39925975867E+01 0.40000624603E+01 0.40050723114E+01
 0.40067758888E+01 0.40050774357E+01 0.40001024867E+01 0.39925557878E+01 0.39849635741E+01
 0.39818782626E+01 0.39849635741E+01 0.39925557878E+01 0.40001024867E+01 0.40050774357E+01
 0.40067758888E+01 0.40050723114E+01 0.40000624603E+01 0.39925975867E+01 0.39849763516E+01
 0.41608554836E+01 0.43250072177E+01 0.44560640908E+01 0.45452321699E+01 0.45896721320E+01
 0.45896814759E+01 0.45451781196E+01 0.44560785222E+01 0.43250478239E+01 0.41608346453E+01
 0.39849635741E+01 0.38259340005E+01 0.37013553403E+01 0.36184912484E+01 0.35778669613E+01
 0.35778780308E+01 0.36184897373E+01 0.37013837380E+01 0.38258415013E+01 0.39849963491E+01
 0.46494285927E+01 0.49276299993E+01 0.51283454999E+01 0.52418305798E+01 0.52773590843E+01
 0.52418488620E+01 0.51283339583E+01 0.49275821698E+01 0.46494008094E+01 0.43250478239E+01
 0.39925557878E+01 0.37013553403E+01 0.34869481495E+01 0.33585732728E+01 0.33161824161E+01
 0.33585694130E+01 0.34869338647E+01 0.37013571048E+01 0.39926111951E+01 0.43249899976E+01
 0.53410492467E+01 0.56256931097E+01 0.57685186556E+01 0.58152787992E+01 0.58152283857E+01
 0.57685114652E+01 0.56256751497E+01 0.53410668592E+01 0.49275821698E+01 0.44560785222E+01
 0.40001024867E+01 0.36184912484E+01 0.33585732728E+01 0.32294551193E+01 0.32294614780E+01
 0.33585624532E+01 0.36185111185E+01 0.40000770148E+01 0.44560731394E+01 0.49276390563E+01
 0.59062927607E+01 0.59512849260E+01 0.58749270371E+01 0.58273607709E+01 0.58749569827E+01
 0.59512776732E+01 0.59062896129E+01 0.56256751497E+01 0.51283339583E+01 0.45451781196E+01
 0.40050774357E+01 0.35778669613E+01 0.33161824161E+01 0.32294614780E+01 0.33161636502E+01
 0.35778931604E+01 0.40050377694E+01 0.45452439306E+01 0.51283215652E+01 0.56256815392E+01
 0.57466773310E+01 0.53510409247E+01 0.50562082990E+01 0.50562275704E+01 0.53510546151E+01
 0.57467012694E+01 0.59512776732E+01 0.57685114652E+01 0.52418488620E+01 0.45896814759E+01
 0.40067758888E+01 0.35778780308E+01 0.33585694130E+01 0.33585624532E+01 0.35778931604E+01
 0.40067450645E+01 0.45897164811E+01 0.52418115889E+01 0.57685222882E+01 0.59512705842E+01
 0.45108835671E+01 0.37948879852E+01 0.35224541669E+01 0.37948755781E+01 0.45109145523E+01
 0.53510546151E+01 0.58749569827E+01 0.58152283857E+01 0.52773590843E+01 0.45896721320E+01
 0.40050723114E+01 0.36184897373E+01 0.34869338647E+01 0.36185111185E+01 0.40050377694E+01
 0.45897164811E+01 0.52773205389E+01 0.58152678045E+01 0.58749114064E+01 0.53510560350E+01
 0.26355024466E+01 0.19972242430E+01 0.19972406880E+01 0.26354728257E+01 0.37948755781E+01
 0.50562275704E+01 0.58273607709E+01 0.58152787992E+01 0.52418305798E+01 0.45452321699E+01
 0.40000624603E+01 0.37013837380E+01 0.37013571048E+01 0.40000770148E+01 0.45452439306E+01
 0.52418115889E+01 0.58152678045E+01 0.58273369479E+01 0.50562473161E+01 0.37948919301E+01
 0.10540849748E+01 0.76595268321E+00 0.10540630363E+01 0.19972406880E+01 0.35224541669E+01
 0.50562082990E+01 0.58749270371E+01 0.57685186556E+01 0.51283454999E+01 0.44560640908E+01
 0.39925975867E+01 0.38258415013E+01 0.39926111951E+01 0.44560731394E+01 0.51283215652E+01
 0.57685222882E+01 0.58749114064E+01 0.50562473161E+01 0.35224567593E+01 0.19973112915E+01
 0.27815298539E+00 0.27811777100E+00 0.76595268321E+00 0.19972242430E+01 0.37948879852E+01
 0.53510409247E+01 0.59512849260E+01 0.56256931097E+01 0.49276299993E+01 0.43250072177E+01
 0.39849763516E+01 0.39849963491E+01 0.43249899976E+01 0.49276390563E+01 0.56256815392E+01
 0.59512705842E+01 0.53510560350E+01 0.37948919301E+01 0.19973112915E+01 0.76594686653E+00
 0.27815070468E+00 0.76595026180E+00 0.19973004617E+01 0.37949045190E+01 0.53510609477E+01
 0.59512680242E+01 0.56256855444E+01 0.49276352588E+01 0.43249895159E+01 0.39849926425E+01
 0.39849764169E+01 0.43250044944E+01 0.49276271830E+01 0.56256893199E+01 0.59512875030E+01
 0.53510393677E+01 0.37949040944E+01 0.19972105588E+01 0.76595243574E+00 0.27811964860E+00
 0.76595026180E+00 0.16817523148E+01 0.32507282516E+01 0.49079121105E+01 0.58616282275E+01
 0.58360147769E+01 0.52155662809E+01 0.45349508570E+01 0.40624454412E+01 0.38913530963E+01
 0.40624387124E+01 0.45349323942E+01 0.52155920517E+01 0.58360152937E+01 0.58616357563E+01
 0.49078942984E+01 0.32506973154E+01 0.16816812311E+01 0.76591531828E+00 0.50172216569E+00
 0.19973004617E+01 0.32507282516E+01 0.47257323847E+01 0.57490028365E+01 0.59122512360E+01
 0.53994877257E+01 0.46940402234E+01 0.41284912658E+01 0.38153354043E+01 0.38153446717E+01
 0.41284873907E+01 0.46940306958E+01 0.53994926919E+01 0.59122757481E+01 0.57489869095E+01
 0.47256924485E+01 0.32507135992E+01 0.19972190987E+01 0.13511824573E+01 0.13512091422E+01
 0.37949045190E+01 0.49079121105E+01 0.57490028365E+01 0.59258797779E+01 0.54838781630E+01
 0.47912108669E+01 0.41750687425E+01 0.37622193725E+01 0.36194295055E+01 0.37621889979E+01
 0.41750927031E+01 0.47911932963E+01 0.54838888493E+01 0.59258898328E+01 0.57490271912E+01
 0.49078745405E+01 0.37949135179E+01 0.29271617861E+01 0.26119805037E+01 0.29271644112E+01
 0.53510609477E+01 0.58616282275E+01 0.59122512360E+01 0.54838781630E+01 0.48235436395E+01
 0.41988328088E+01 0.37319788439E+01 0.34880078423E+01 0.34880363891E+01 0.37319550259E+01
 0.41988441904E+01 0.48235501352E+01 0.54838697901E+01 0.59122458397E+01 0.58616517244E+01
 0.53510737666E+01 0.46896270534E+01 0.42493508641E+01 0.42493588665E+01 0.46896148680E+01
 0.59512680242E+01 0.58360147769E+01 0.53994877257E+01 0.47912108669E+01 0.41988328088E+01
 0.37222996266E+01 0.34231348818E+01 0.33238020498E+01 0.34231471698E+01 0.37222877552E+01
 0.41988402371E+01 0.47911881085E+01 0.53995172861E+01 0.58359923465E+01 0.59512994426E+01
 0.57785956923E+01 0.55229494996E+01 0.54070894441E+01 0.55229184322E+01 0.57785751577E+01
 0.56256855444E+01 0.52155662809E+01 0.46940402234E+01 0.41750687425E+01 0.37319788439E+01
 0.34231348818E+01 0.32695396892E+01 0.32695280023E+01 0.34231663229E+01 0.37319576180E+01
 0.41751004934E+01 0.46939790359E+01 0.52155774288E+01 0.56256875471E+01 0.58416607091E+01
 0.58853386567E+01 0.58612120823E+01 0.58612151657E+01 0.58853486656E+01 0.58416771028E+01
 0.49276352588E+01 0.45349508570E+01 0.41284912658E+01 0.37622193725E+01 0.34880078423E+01
 0.33238020498E+01 0.32695280023E+01 0.33237857650E+01 0.34880266815E+01 0.37621735877E+01
 0.41285382433E+01 0.45349343331E+01 0.49275927635E+01 0.52481004703E+01 0.54552813097E+01
 0.55548031887E+01 0.55815682880E+01 0.55548155869E+01 0.54552602437E+01 0.52480983258E+01
 0.43249895159E+01 0.40624454412E+01 0.38153354043E+01 0.36194295055E+01 0.34880363891E+01
 0.34231471698E+01 0.34231663229E+01 0.34880266815E+01 0.36194718261E+01 0.38153240694E+01
 0.40623958961E+01 0.43250540693E+01 0.45630552273E+01 0.47516547685E+01 0.48760368777E+01
 0.49353489324E+01 0.49353262172E+01 0.48760605555E+01 0.47517001177E+01 0.45630769468E+01
 0.39849926425E+01 0.38913530963E+01 0.38153446717E+01 0.37621889979E+01 0.37319550259E+01
 0.37222877552E+01 0.37319576180E+01 0.37621735877E+01 0.38153240694E+01 0.38914383284E+01
 0.39849685202E+01 0.40836281662E+01 0.41696327531E+01 0.42320153334E+01 0.42686055304E+01
 0.42805797872E+01 0.42686222658E+01 0.42320007728E+01 0.41695780704E+01 0.40836652305E+01
 0.39849764169E+01 0.40624387124E+01 0.41284873907E+01 0.41750927031E+01 0.41988441904E+01
 0.41988402371E+01 0.41751004934E+01 0.41285382433E+01 0.40623958961E+01 0.39849685202E+01
 0.39090466547E+01 0.38440038491E+01 0.37950568499E+01 0.37629792090E+01 0.37471004964E+01
 0.37471200264E+01 0.37629490656E+01 0.37951028376E+01 0.38440172759E+01 0.39089656935E+01
 0.43250044944E+01 0.45349323942E+01 0.46940306958E+01 0.47911932963E+01 0.48235501352E+01
 0.47911881085E+01 0.46939790359E+01 0.45349343331E+01 0.43250540693E+01 0.40836281662E+01
 0.38440038491E+01 0.36411155472E+01 0.34923928790E+01 0.34035407988E+01 0.33742258950E+01
 0.34035337184E+01 0.34923997661E+01 0.36410452363E+01 0.38440231708E+01 0.40836642472E+01
 0.49276271830E+01 0.52155920517E+01 0.53994926919E+01 0.54838888493E+01 0.54838697901E+01
 0.53995172861E+01 0.52155774288E+01 0.49275927635E+01 0.45630552273E+01 0.41696327531E+01
 0.37950568499E+01 0.34923928790E+01 0.32885727962E+01 0.31874118336E+01 0.31873901171E+01
 0.32885991267E+01 0.34923709816E+01 0.37951203546E+01 0.41695688980E+01 0.45630792813E+01
 0.56256893199E+01 0.58360152937E+01 0.59122757481E+01 0.59258898328E+01 0.59122458397E+01
 0.58359923465E+01 0.56256875471E+01 0.52481004703E+01 0.47516547685E+01 0.42320153334E+01
 0.37629792090E+01 0.34035407988E+01 0.31874118336E+01 0.31158602444E+01 0.31874104416E+01
 0.34035269554E+01 0.37629764861E+01 0.42319904062E+01 0.47517117752E+01 0.52480983181E+01
 0.59512875030E+01 0.58616357563E+01 0.57489869095E+01 0.57490271912E+01 0.58616517244E+01
 0.59512994426E+01 0.58416607091E+01 0.54552813097E+01 0.48760368777E+01 0.42686055304E+01
 0.37471004964E+01 0.33742258950E+01 0.31873901171E+01 0.31874104416E+01 0.33742139395E+01
 0.37471051387E+01 0.42686284843E+01 0.48760486488E+01 0.54552590437E+01 0.58416785309E+01
 0.53510393677E+01 0.49078942984E+01 0.47256924485E+01 0.49078745405E+01 0.53510737666E+01
 0.57785956923E+01 0.58853386567E+01 0.55548031887E+01 0.49353489324E+01 0.42805797872E+01
 0.37471200264E+01 0.34035337184E+01 0.32885991267E+01 0.34035269554E+01 0.37471051387E+01
 0.42806095050E+01 0.49353047547E+01 0.55548244623E+01 0.58853356416E+01 0.57785741547E+01
 0.37949040944E+01 0.32506973154E+01 0.32507135992E+01 0.37949135179E+01 0.46896270534E+01
 0.55229494996E+01 0.58612120823E+01 0.55815682880E+01 0.49353262172E+01 0.42686222658E+01
 0.37629490656E+01 0.34923997661E+01 0.34923709816E+01 0.37629764861E+01 0.42686284843E+01
 0.49353047547E+01 0.55815973737E+01 0.58611773195E+01 0.55229309907E+01 0.46896036715E+01
 0.19972105588E+01 0.16816812311E+01 0.19972190987E+01 0.29271617861E+01 0.42493508641E+01
 0.54070894441E+01 0.58612151657E+01 0.55548155869E+01 0.48760605555E+01 0.42320007728E+01
 0.37951028376E+01 0.36410452363E+01 0.37951203546E+01 0.42319904062E+01 0.48760486488E+01
 0.55548244623E+01 0.58611773195E+01 0.54071108070E+01 0.42493524357E+01 0.29271906843E+01
 0.76595243574E+00 0.76591531828E+00 0.13511824573E+01 0.26119805037E+01 0.42493588665E+01
 0.55229184322E+01 0.58853486656E+01 0.54552602437E+01 0.47517001177E+01 0.41695780704E+01
 0.38440172759E+01 0.38440231708E+01 0.41695688980E+01 0.47517117752E+01 0.54552590437E+01
 0.58853356416E+01 0.55229309907E+01 0.42493524357E+01 0.26119815903E+01 0.13511985598E+01
 0.27811964860E+00 0.50172216569E+00 0.13512091422E+01 0.29271644112E+01 0.46896148680E+01
 0.57785751577E+01 0.58416771028E+01 0.52480983258E+01 0.45630769468E+01 0.40836652305E+01
 0.39089656935E+01 0.40836642472E+01 0.45630792813E+01 0.52480983181E+01 0.58416785309E+01
 0.57785741547E+01 0.46896036715E+01 0.29271906843E+01 0.13511985598E+01 0.50172368336E+00
 0.10540871466E+01 0.19972993935E+01 0.35224762310E+01 0.50562439621E+01 0.58748983975E+01
 0.57685294089E+01 0.51283148514E+01 0.44560807189E+01 0.39926091807E+01 0.38258468989E+01
 0.39925950770E+01 0.44560702758E+01 0.51283431702E+01 0.57685251196E+01 0.58749163319E+01
 0.50562186923E+01 0.35224286097E+01 0.19972445261E+01 0.10540753179E+01 0.76595148839E+00
 0.19972993935E+01 0.32507379314E+01 0.47257225658E+01 0.57489947788E+01 0.59122581552E+01
 0.53994843421E+01 0.46940417550E+01 0.41284886608E+01 0.38153367233E+01 0.38153441579E+01
 0.41284886581E+01 0.46940284112E+01 0.53994966608E+01 0.59122742510E+01 0.57489938606E+01
 0.47256847893E+01 0.32507218702E+01 0.19972301220E+01 0.13511692461E+01 0.13512096365E+01
 0.35224762310E+01 0.47257225658E+01 0.56823156694E+01 0.59518019598E+01 0.55516588435E+01
 0.48610023040E+01 0.42344379011E+01 0.38128147732E+01 0.36660858757E+01 0.38127828978E+01
 0.42344529713E+01 0.48610030580E+01 0.55516621152E+01 0.59518263273E+01 0.56822985279E+01
 0.47256670233E+01 0.35224638423E+01 0.26119538912E+01 0.22870390639E+01 0.26119613098E+01
 0.50562439621E+01 0.57489947788E+01 0.59518019598E+01 0.55989267237E+01 0.49455862506E+01
 0.43007811449E+01 0.38149686875E+01 0.35579732778E+01 0.35580105571E+01 0.38149433584E+01
 0.43007728683E+01 0.49456054093E+01 0.55988929374E+01 0.59518344949E+01 0.57490198432E+01
 0.50562211092E+01 0.42493871033E+01 0.37354894100E+01 0.37354595203E+01 0.42493705303E+01
 0.58748983975E+01 0.59122581552E+01 0.55516588435E+01 0.49455862506E+01 0.43233534622E+01
 0.38174283405E+01 0.34944249955E+01 0.33867486352E+01 0.34944251947E+01 0.38174471345E+01
 0.43233248669E+01 0.49456191980E+01 0.55516408442E+01 0.59122488821E+01 0.58749391242E+01
 0.55229415201E+01 0.51296809833E+01 0.49634193981E+01 0.51297040265E+01 0.55229268343E+01
 0.57685294089E+01 0.53994843421E+01 0.48610023040E+01 0.43007811449E+01 0.38174283405E+01
 0.34737174685E+01 0.33020202930E+01 0.33020091852E+01 0.34737209200E+01 0.38174328735E+01
 0.43007637739E+01 0.48609899891E+01 0.53995172761E+01 0.57685018665E+01 0.58853483019E+01
 0.58133736641E+01 0.57131518585E+01 0.57131176772E+01 0.58133439357E+01 0.58853311341E+01
 0.51283148514E+01 0.46940417550E+01 0.42344379011E+01 0.38149686875E+01 0.34944249955E+01
 0.33020202930E+01 0.32384001021E+01 0.33020248044E+01 0.34944364229E+01 0.38149604463E+01
 0.42344624730E+01 0.46939797916E+01 0.51283342495E+01 0.54552719488E+01 0.56328955408E+01
 0.56925679153E+01 0.57012981521E+01 0.56925847766E+01 0.56329114914E+01 0.54552621242E+01
 0.44560807189E+01 0.41284886608E+01 0.38128147732E+01 0.35579732778E+01 0.33867486352E+01
 0.33020091852E+01 0.33020248044E+01 0.33867228417E+01 0.35579977477E+01 0.38127568455E+01
 0.41285388763E+01 0.44560738243E+01 0.47516507436E+01 0.49789694262E+01 0.51193313563E+01
 0.51812525978E+01 0.51812575929E+01 0.51193089793E+01 0.49789614692E+01 0.47517090417E+01
 0.39926091807E+01 0.38153367233E+01 0.36660858757E+01 0.35580105571E+01 0.34944251947E+01
 0.34737209200E+01 0.34944364229E+01 0.35579977477E+01 0.36661311967E+01 0.38153261358E+01
 0.39925520086E+01 0.41696312385E+01 0.43184415120E+01 0.44260785672E+01 0.44892432172E+01
 0.45096747241E+01 0.44892523469E+01 0.44261305664E+01 0.43184293984E+01 0.41695726724E+01
 0.38258468989E+01 0.38153441579E+01 0.38127828978E+01 0.38149433584E+01 0.38174471345E+01
 0.38174328735E+01 0.38149604463E+01 0.38127568455E+01 0.38153261358E+01 0.38259297246E+01
 0.38440017042E+01 0.38658106931E+01 0.38843460471E+01 0.38960191726E+01 0.39011646873E+01
 0.39011629961E+01 0.38960028482E+01 0.38843079398E+01 0.38658571551E+01 0.38440215528E+01
 0.39925950770E+01 0.41284886581E+01 0.42344529713E+01 0.43007728683E+01 0.43233248669E+01
 0.43007637739E+01 0.42344624730E+01 0.41285388763E+01 0.39925520086E+01 0.38440017042E+01
 0.37041607738E+01 0.35874612585E+01 0.35024406255E+01 0.34518300577E+01 0.34351116859E+01
 0.34518390334E+01 0.35024574586E+01 0.35874731498E+01 0.37040783254E+01 0.38440186641E+01
 0.44560702758E+01 0.46940284112E+01 0.48610030580E+01 0.49456054093E+01 0.49456191980E+01
 0.48609899891E+01 0.46939797916E+01 0.44560738243E+01 0.41696312385E+01 0.38658106931E+01
 0.35874612585E+01 0.33679367048E+01 0.32201152116E+01 0.31467106247E+01 0.31466904819E+01
 0.32201131255E+01 0.33679130299E+01 0.35874652885E+01 0.38658579425E+01 0.41695766483E+01
 0.51283431702E+01 0.53994966608E+01 0.55516621152E+01 0.55988929374E+01 0.55516408442E+01
 0.53995172761E+01 0.51283342495E+01 0.47516507436E+01 0.43184415120E+01 0.38843460471E+01
 0.35024406255E+01 0.32201152116E+01 0.30510976271E+01 0.29951855237E+01 0.30511143781E+01
 0.32201021823E+01 0.35024680861E+01 0.38843124346E+01 0.43184290832E+01 0.47517018728E+01
 0.57685251196E+01 0.59122742510E+01 0.59518263273E+01 0.59518344949E+01 0.59122488821E+01
 0.57685018665E+01 0.54552719488E+01 0.49789694262E+01 0.44260785672E+01 0.38960191726E+01
 0.34518300577E+01 0.31467106247E+01 0.29951855237E+01 0.29952013270E+01 0.31466762514E+01
 0.34518617075E+01 0.38959809300E+01 0.44261403301E+01 0.49789603537E+01 0.54552586335E+01
 0.58749163319E+01 0.57489938606E+01 0.56822985279E+01 0.57490198432E+01 0.58749391242E+01
 0.58853483019E+01 0.56328955408E+01 0.51193313563E+01 0.44892432172E+01 0.39011646873E+01
 0.34351116859E+01 0.31466904819E+01 0.30511143781E+01 0.31466762514E+01 0.34351391946E+01
 0.39011383141E+01 0.44892761403E+01 0.51192975768E+01 0.56329074999E+01 0.58853543094E+01
 0.50562186923E+01 0.47256847893E+01 0.47256670233E+01 0.50562211092E+01 0.55229415201E+01
 0.58133736641E+01 0.56925679153E+01 0.51812525978E+01 0.45096747241E+01 0.39011629961E+01
 0.34518390334E+01 0.32201131255E+01 0.32201021823E+01 0.34518617075E+01 0.39011383141E+01
 0.45096914529E+01 0.51812467641E+01 0.56925857726E+01 0.58133472082E+01 0.55229116552E+01
 0.35224286097E+01 0.32507218702E+01 0.35224638423E+01 0.42493871033E+01 0.51296809833E+01
 0.57131518585E+01 0.57012981521E+01 0.51812575929E+01 0.44892523469E+01 0.38960028482E+01
 0.35024574586E+01 0.33679130299E+01 0.35024680861E+01 0.38959809300E+01 0.44892761403E+01
 0.51812467641E+01 0.57012961745E+01 0.57131117047E+01 0.51296914783E+01 0.42493784548E+01
 0.19972445261E+01 0.19972301220E+01 0.26119538912E+01 0.37354894100E+01 0.49634193981E+01
 0.57131176772E+01 0.56925847766E+01 0.51193089793E+01 0.44261305664E+01 0.38843079398E+01
 0.35874731498E+01 0.35874652885E+01 0.38843124346E+01 0.44261403301E+01 0.51192975768E+01
 0.56925857726E+01 0.57131117047E+01 0.49634420323E+01 0.37354667125E+01 0.26119651331E+01
 0.10540753179E+01 0.13511692461E+01 0.22870390639E+01 0.37354595203E+01 0.51297040265E+01
 0.58133439357E+01 0.56329114914E+01 0.49789614692E+01 0.43184293984E+01 0.38658571551E+01
 0.37040783254E+01 0.38658579425E+01 0.43184290832E+01 0.49789603537E+01 0.56329074999E+01
 0.58133472082E+01 0.51296914783E+01 0.37354667125E+01 0.22870318738E+01 0.13511799493E+01
 0.76595148839E+00 0.13512096365E+01 0.26119613098E+01 0.42493705303E+01 0.55229268343E+01
 0.58853311341E+01 0.54552621242E+01 0.47517090417E+01 0.41695726724E+01 0.38440215528E+01
 0.38440186641E+01 0.41695766483E+01 0.47517018728E+01 0.54552586335E+01 0.58853543094E+01
 0.55229116552E+01 0.42493784548E+01 0.26119651331E+01 0.13511799493E+01 0.76591417409E+00
 0.26354896291E+01 0.37949132156E+01 0.50562337181E+01 0.58273341412E+01 0.58152805974E+01
 0.52418048300E+01 0.45452483100E+01 0.40000720160E+01 0.37013586790E+01 0.37013797736E+01
 0.40000641334E+01 0.45452292345E+01 0.52418323030E+01 0.58152724076E+01 0.58273662685E+01
 0.50562200828E+01 0.37948843827E+01 0.26354859718E+01 0.19972348936E+01 0.19972190205E+01
 0.37949132156E+01 0.49078960604E+01 0.57490037646E+01 0.59258970136E+01 0.54838684426E+01
 0.47912169059E+01 0.41750665281E+01 0.37622224138E+01 0.36194256094E+01 0.37621910958E+01
 0.41750892551E+01 0.47911953485E+01 0.54838824697E+01 0.59258942746E+01 0.57490224305E+01
 0.49078823113E+01 0.37949189823E+01 0.29271367960E+01 0.26119842106E+01 0.29271733515E+01
 0.50562337181E+01 0.57490037646E+01 0.59518082351E+01 0.55989201613E+01 0.49455864363E+01
 0.43007811049E+01 0.38149667548E+01 0.35579754569E+01 0.35580105186E+01 0.38149443899E+01
 0.43007724335E+01 0.49456082573E+01 0.55988927327E+01 0.59518341657E+01 0.57490150373E+01
 0.50562236132E+01 0.42493707524E+01 0.37355059925E+01 0.37354664092E+01 0.42493637112E+01
 0.58273341412E+01 0.59258970136E+01 0.55989201613E+01 0.49977173973E+01 0.43662831589E+01
 0.38505974928E+01 0.35195184931E+01 0.34089236705E+01 0.35195053849E+01 0.38506232368E+01
 0.43662360113E+01 0.49977616171E+01 0.55988822306E+01 0.59259084238E+01 0.58273925291E+01
 0.54070929070E+01 0.49634119746E+01 0.47790819484E+01 0.49634420506E+01 0.54071020044E+01
 0.58152805974E+01 0.54838684426E+01 0.49455864363E+01 0.43662831589E+01 0.38631532027E+01
 0.35017352776E+01 0.33204891188E+01 0.33204885975E+01 0.35017248169E+01 0.38631831571E+01
 0.43662448462E+01 0.49456113080E+01 0.54838746459E+01 0.58152434010E+01 0.58612402801E+01
 0.57131435743E+01 0.55647954606E+01 0.55647965087E+01 0.57130999536E+01 0.58611785607E+01
 0.52418048300E+01 0.47912169059E+01 0.43007811049E+01 0.38505974928E+01 0.35017352776E+01
 0.32914727497E+01 0.32219332849E+01 0.32914889887E+01 0.35017115594E+01 0.38506208752E+01
 0.43007555230E+01 0.47911958590E+01 0.52418613259E+01 0.55548107433E+01 0.56925686435E+01
 0.57103615193E+01 0.57014525046E+01 0.57103341504E+01 0.56925883938E+01 0.55548317393E+01
 0.45452483100E+01 0.41750665281E+01 0.38149667548E+01 0.35195184931E+01 0.33204891188E+01
 0.32219332849E+01 0.32219262496E+01 0.33204964199E+01 0.35195199684E+01 0.38149575448E+01
 0.41751025455E+01 0.45451817178E+01 0.48760534674E+01 0.51193360687E+01 0.52576740357E+01
 0.53126370271E+01 0.53126450823E+01 0.52576917026E+01 0.51192922641E+01 0.48760447714E+01
 0.40000720160E+01 0.37622224138E+01 0.35579754569E+01 0.34089236705E+01 0.33204885975E+01
 0.32914889887E+01 0.33204964199E+01 0.34089104133E+01 0.35579928667E+01 0.37621728830E+01
 0.40001061314E+01 0.42320282253E+01 0.44260761539E+01 0.45657425695E+01 0.46455925383E+01
 0.46708130853E+01 0.46455846492E+01 0.45657439857E+01 0.44261407822E+01 0.42319936902E+01
 0.37013586790E+01 0.36194256094E+01 0.35580105186E+01 0.35195053849E+01 0.35017248169E+01
 0.35017115594E+01 0.35195199684E+01 0.35579928667E+01 0.36194694188E+01 0.37013585388E+01
 0.37950595081E+01 0.38843446198E+01 0.39538166322E+01 0.39980744925E+01 0.40190030416E+01
 0.40189973471E+01 0.39980879132E+01 0.39537918105E+01 0.38843126924E+01 0.37951138890E+01
 0.37013797736E+01 0.37621910958E+01 0.38149443899E+01 0.38506232368E+01 0.38631831571E+01
 0.38506208752E+01 0.38149575448E+01 0.37621728830E+01 0.37013585388E+01 0.36411193698E+01
 0.35874630675E+01 0.35443382751E+01 0.35131084184E+01 0.34938611724E+01 0.34873001929E+01
 0.34938628642E+01 0.35131070893E+01 0.35443678480E+01 0.35874664960E+01 0.36410485524E+01
 0.40000641334E+01 0.41750892551E+01 0.43007724335E+01 0.43662360113E+01 0.43662448462E+01
 0.43007555230E+01 0.41751025455E+01 0.40001061314E+01 0.37950595081E+01 0.35874630675E+01
 0.34028683634E+01 0.32570614206E+01 0.31584270298E+01 0.31092215128E+01 0.31092322852E+01
 0.31584118288E+01 0.32570563239E+01 0.34028323946E+01 0.35874733264E+01 0.37950991546E+01
 0.45452292345E+01 0.47911953485E+01 0.49456082573E+01 0.49977616171E+01 0.49456113080E+01
 0.47911958590E+01 0.45451817178E+01 0.42320282253E+01 0.38843446198E+01 0.35443382751E+01
 0.32570614206E+01 0.30465199089E+01 0.29201856904E+01 0.28783237429E+01 0.29201822210E+01
 0.30465342110E+01 0.32570526180E+01 0.35443668190E+01 0.38843093889E+01 0.42320020766E+01
 0.52418323030E+01 0.54838824697E+01 0.55988927327E+01 0.55988822306E+01 0.54838746459E+01
 0.52418613259E+01 0.48760534674E+01 0.44260761539E+01 0.39538166322E+01 0.35131084184E+01
 0.31584270298E+01 0.29201856904E+01 0.28019571067E+01 0.28019499729E+01 0.29201868443E+01
 0.31584104261E+01 0.35131115618E+01 0.39537916616E+01 0.44261312883E+01 0.48760562755E+01
 0.58152724076E+01 0.59258942746E+01 0.59518341657E+01 0.59259084238E+01 0.58152434010E+01
 0.55548107433E+01 0.51193360687E+01 0.45657425695E+01 0.39980744925E+01 0.34938611724E+01
 0.31092215128E+01 0.28783237429E+01 0.28019499729E+01 0.28783271360E+01 0.31092289209E+01
 0.34938602839E+01 0.39980918680E+01 0.45657453785E+01 0.51193091541E+01 0.55548202560E+01
 0.58273662685E+01 0.57490224305E+01 0.57490150373E+01 0.58273925291E+01 0.58612402801E+01
 0.56925686435E+01 0.52576740357E+01 0.46455925383E+01 0.40190030416E+01 0.34873001929E+01
 0.31092322852E+01 0.29201822210E+01 0.29201868443E+01 0.31092289209E+01 0.34872888448E+01
 0.40190221366E+01 0.46455692204E+01 0.52576905843E+01 0.56925845736E+01 0.58612115981E+01
 0.50562200828E+01 0.49078823113E+01 0.50562236132E+01 0.54070929070E+01 0.57131435743E+01
 0.57103615193E+01 0.53126370271E+01 0.46708130853E+01 0.40189973471E+01 0.34938628642E+01
 0.31584118288E+01 0.30465342110E+01 0.31584104261E+01 0.34938602839E+01 0.40190221366E+01
 0.46707972393E+01 0.53126566975E+01 0.57103348791E+01 0.57131162972E+01 0.54070964467E+01
 0.37948843827E+01 0.37949189823E+01 0.42493707524E+01 0.49634119746E+01 0.55647954606E+01
 0.57014525046E+01 0.53126450823E+01 0.46455846492E+01 0.39980879132E+01 0.35131070893E+01
 0.32570563239E+01 0.32570526180E+01 0.35131115618E+01 0.39980918680E+01 0.46455692204E+01
 0.53126566975E+01 0.57014362025E+01 0.55648004970E+01 0.49634162069E+01 0.42493448971E+01
 0.26354859718E+01 0.29271367960E+01 0.37355059925E+01 0.47790819484E+01 0.55647965087E+01
 0.57103341504E+01 0.52576917026E+01 0.45657439857E+01 0.39537918105E+01 0.35443678480E+01
 0.34028323946E+01 0.35443668190E+01 0.39537916616E+01 0.45657453785E+01 0.52576905843E+01
 0.57103348791E+01 0.55648004970E+01 0.47790659957E+01 0.37354981889E+01 0.29271633040E+01
 0.19972348936E+01 0.26119842106E+01 0.37354664092E+01 0.49634420506E+01 0.57130999536E+01
 0.56925883938E+01 0.51192922641E+01 0.44261407822E+01 0.38843126924E+01 0.35874664960E+01
 0.35874733264E+01 0.38843093889E+01 0.44261312883E+01 0.51193091541E+01 0.56925845736E+01
 0.57131162972E+01 0.49634162069E+01 0.37354981889E+01 0.26119685816E+01 0.19972119883E+01
 0.19972190205E+01 0.29271733515E+01 0.42493637112E+01 0.54071020044E+01 0.58611785607E+01
 0.55548317393E+01 0.48760447714E+01 0.42319936902E+01 0.37951138890E+01 0.36410485524E+01
 0.37950991546E+01 0.42320020766E+01 0.48760562755E+01 0.55548202560E+01 0.58612115981E+01
 0.54070964467E+01 0.42493448971E+01 0.29271633040E+01 0.19972119883E+01 0.16816919240E+01
 0.45109018991E+01 0.53510430712E+01 0.58749147513E+01 0.58152730289E+01 0.52773053938E+01
 0.45897221410E+01 0.40050307902E+01 0.36185181746E+01 0.34869312703E+01 0.36184941725E+01
 0.40050693283E+01 0.45896766678E+01 0.52773574961E+01 0.58152339489E+01 0.58749542522E+01
 0.53510616613E+01 0.45109061850E+01 0.37948779249E+01 0.35224463141E+01 0.37948856972E+01
 0.53510430712E+01 0.58616396213E+01 0.59122568958E+01 0.54838621750E+01 0.48235520467E+01
 0.41988315341E+01 0.37319799927E+01 0.34880064090E+01 0.34880376399E+01 0.37319561226E+01