
     Program PWSCF v.6.4.1 starts on 17Feb2023 at 18: 8:13 

     This program is part of the open-source Quantum ESPRESSO suite
     for quantum simulation of materials; please cite
         "P. Giannozzi et al., J. Phys.:Condens. Matter 21 395502 (2009);
         "P. Giannozzi et al., J. Phys.:Condens. Matter 29 465901 (2017);
          URL http://www.quantum-espresso.org", 
     in publications or presentations arising from this work. More details at
     http://www.quantum-espresso.org/quote

     Parallel version (MPI & OpenMP), running on       4 processor cores
     Number of MPI processes:                 1
     Threads/MPI process:                     4

     MPI processes distributed on     1 nodes
     Waiting for input...
     Reading input from standard input

     Current dimensions of program PWSCF are:
     Max number of different atomic species (ntypx) = 10
     Max number of k-points (npk) =  40000
     Max angular momentum in pseudopotentials (lmaxx) =  3
               file Si.pbe-n-kjpaw_psl.1.0.0.UPF: wavefunction(s)  3S 3P renormalized

     Subspace diagonalization in iterative solution of the eigenvalue problem:
     a serial algorithm will be used


     G-vector sticks info
     --------------------
     sticks:   dense  smooth     PW     G-vecs:    dense   smooth      PW
     Sum         283     283    109                 3143     3143     701



     bravais-lattice index     =            2
     lattice parameter (alat)  =      10.2000  a.u.
     unit-cell volume          =     265.3020 (a.u.)^3
     number of atoms/cell      =            2
     number of atomic types    =            1
     number of electrons       =         8.00
     number of Kohn-Sham states=            4
     kinetic-energy cutoff     =      20.0000  Ry
     charge density cutoff     =      80.0000  Ry
     convergence threshold     =      1.0E-09
     mixing beta               =       0.3000
     number of iterations used =            8  plain     mixing
     Exchange-correlation      = SLA PW PBX PBC ( 1  4  3  4 0 0)

     celldm(1)=  10.200000  celldm(2)=   0.000000  celldm(3)=   0.000000
     celldm(4)=   0.000000  celldm(5)=   0.000000  celldm(6)=   0.000000

     crystal axes: (cart. coord. in units of alat)
               a(1) = (  -0.500000   0.000000   0.500000 )  
               a(2) = (   0.000000   0.500000   0.500000 )  
               a(3) = (  -0.500000   0.500000   0.000000 )  

     reciprocal axes: (cart. coord. in units 2 pi/alat)
               b(1) = ( -1.000000 -1.000000  1.000000 )  
               b(2) = (  1.000000  1.000000  1.000000 )  
               b(3) = ( -1.000000  1.000000 -1.000000 )  


     PseudoPot. # 1 for Si read from file:
     .\Si.pbe-n-kjpaw_psl.1.0.0.UPF
     MD5 check sum: c39c59da582df4a0d9f10159256ea34e
     Pseudo is Projector augmented-wave + core cor, Zval =  4.0
     Generated using "atomic" code by A. Dal Corso v.6.3
     Shape of augmentation charge: PSQ
     Using radial grid of 1141 points,  6 beta functions with: 
                l(1) =   0
                l(2) =   0
                l(3) =   1
                l(4) =   1
                l(5) =   2
                l(6) =   2
     Q(r) pseudized with 0 coefficients 


     atomic species   valence    mass     pseudopotential
        Si             4.00    28.08600     Si( 1.00)

     48 Sym. Ops., with inversion, found (24 have fractional translation)


                                    s                        frac. trans.

      isym =  1     identity                                     

 cryst.   s( 1) = (     1          0          0      )
                  (     0          1          0      )
                  (     0          0          1      )

 cart.    s( 1) = (  1.0000000  0.0000000  0.0000000 )
                  (  0.0000000  1.0000000  0.0000000 )
                  (  0.0000000  0.0000000  1.0000000 )


      isym =  2     180 deg rotation - cart. axis [0,0,1]        

 cryst.   s( 2) = (     0          1         -1      )
                  (     1          0         -1      )
                  (     0          0         -1      )

 cart.    s( 2) = ( -1.0000000  0.0000000  0.0000000 )
                  (  0.0000000 -1.0000000  0.0000000 )
                  (  0.0000000  0.0000000  1.0000000 )


      isym =  3     180 deg rotation - cart. axis [0,1,0]        

 cryst.   s( 3) = (    -1          0          0      )
                  (    -1          0          1      )
                  (    -1          1          0      )

 cart.    s( 3) = ( -1.0000000  0.0000000  0.0000000 )
                  (  0.0000000  1.0000000  0.0000000 )
                  (  0.0000000  0.0000000 -1.0000000 )


      isym =  4     180 deg rotation - cart. axis [1,0,0]        

 cryst.   s( 4) = (     0         -1          1      )
                  (     0         -1          0      )
                  (     1         -1          0      )

 cart.    s( 4) = (  1.0000000  0.0000000  0.0000000 )
                  (  0.0000000 -1.0000000  0.0000000 )
                  (  0.0000000  0.0000000 -1.0000000 )


      isym =  5     180 deg rotation - cart. axis [1,1,0]        

 cryst.   s( 5) = (     0         -1          0      )    f =(  0.2500000 )
                  (    -1          0          0      )       (  0.2500000 )
                  (     0          0         -1      )       (  0.2500000 )

 cart.    s( 5) = (  0.0000000  1.0000000  0.0000000 )    f =( -0.2500000 )
                  (  1.0000000  0.0000000  0.0000000 )       (  0.2500000 )
                  (  0.0000000  0.0000000 -1.0000000 )       (  0.2500000 )


      isym =  6     180 deg rotation - cart. axis [1,-1,0]       

 cryst.   s( 6) = (    -1          0          1      )    f =(  0.2500000 )
                  (     0         -1          1      )       (  0.2500000 )
                  (     0          0          1      )       (  0.2500000 )

 cart.    s( 6) = (  0.0000000 -1.0000000  0.0000000 )    f =( -0.2500000 )
                  ( -1.0000000  0.0000000  0.0000000 )       (  0.2500000 )
                  (  0.0000000  0.0000000 -1.0000000 )       (  0.2500000 )


      isym =  7      90 deg rotation - cart. axis [0,0,-1]       

 cryst.   s( 7) = (     0          1          0      )    f =(  0.2500000 )
                  (     0          1         -1      )       (  0.2500000 )
                  (    -1          1          0      )       (  0.2500000 )

 cart.    s( 7) = (  0.0000000  1.0000000  0.0000000 )    f =( -0.2500000 )
                  ( -1.0000000  0.0000000  0.0000000 )       (  0.2500000 )
                  (  0.0000000  0.0000000  1.0000000 )       (  0.2500000 )


      isym =  8      90 deg rotation - cart. axis [0,0,1]        

 cryst.   s( 8) = (     1          0         -1      )    f =(  0.2500000 )
                  (     1          0          0      )       (  0.2500000 )
                  (     1         -1          0      )       (  0.2500000 )

 cart.    s( 8) = (  0.0000000 -1.0000000  0.0000000 )    f =( -0.2500000 )
                  (  1.0000000  0.0000000  0.0000000 )       (  0.2500000 )
                  (  0.0000000  0.0000000  1.0000000 )       (  0.2500000 )


      isym =  9     180 deg rotation - cart. axis [1,0,1]        

 cryst.   s( 9) = (    -1          0          0      )    f =(  0.2500000 )
                  (     0          0         -1      )       (  0.2500000 )
                  (     0         -1          0      )       (  0.2500000 )

 cart.    s( 9) = (  0.0000000  0.0000000  1.0000000 )    f =( -0.2500000 )
                  (  0.0000000 -1.0000000  0.0000000 )       (  0.2500000 )
                  (  1.0000000  0.0000000  0.0000000 )       (  0.2500000 )


      isym = 10     180 deg rotation - cart. axis [-1,0,1]       

 cryst.   s(10) = (     1          0          0      )    f =(  0.2500000 )
                  (     1         -1          0      )       (  0.2500000 )
                  (     1          0         -1      )       (  0.2500000 )

 cart.    s(10) = (  0.0000000  0.0000000 -1.0000000 )    f =( -0.2500000 )
                  (  0.0000000 -1.0000000  0.0000000 )       (  0.2500000 )
                  ( -1.0000000  0.0000000  0.0000000 )       (  0.2500000 )


      isym = 11      90 deg rotation - cart. axis [0,1,0]        

 cryst.   s(11) = (     0          1         -1      )    f =(  0.2500000 )
                  (    -1          1          0      )       (  0.2500000 )
                  (     0          1          0      )       (  0.2500000 )

 cart.    s(11) = (  0.0000000  0.0000000  1.0000000 )    f =( -0.2500000 )
                  (  0.0000000  1.0000000  0.0000000 )       (  0.2500000 )
                  ( -1.0000000  0.0000000  0.0000000 )       (  0.2500000 )


      isym = 12      90 deg rotation - cart. axis [0,-1,0]       

 cryst.   s(12) = (     0         -1          1      )    f =(  0.2500000 )
                  (     0          0          1      )       (  0.2500000 )
                  (    -1          0          1      )       (  0.2500000 )

 cart.    s(12) = (  0.0000000  0.0000000 -1.0000000 )    f =( -0.2500000 )
                  (  0.0000000  1.0000000  0.0000000 )       (  0.2500000 )
                  (  1.0000000  0.0000000  0.0000000 )       (  0.2500000 )


      isym = 13     180 deg rotation - cart. axis [0,1,1]        

 cryst.   s(13) = (    -1          1          0      )    f =(  0.2500000 )
                  (     0          1          0      )       (  0.2500000 )
                  (     0          1         -1      )       (  0.2500000 )

 cart.    s(13) = ( -1.0000000  0.0000000  0.0000000 )    f =( -0.2500000 )
                  (  0.0000000  0.0000000  1.0000000 )       (  0.2500000 )
                  (  0.0000000  1.0000000  0.0000000 )       (  0.2500000 )


      isym = 14     180 deg rotation - cart. axis [0,1,-1]       

 cryst.   s(14) = (     0          0         -1      )    f =(  0.2500000 )
                  (     0         -1          0      )       (  0.2500000 )
                  (    -1          0          0      )       (  0.2500000 )

 cart.    s(14) = ( -1.0000000  0.0000000  0.0000000 )    f =( -0.2500000 )
                  (  0.0000000  0.0000000 -1.0000000 )       (  0.2500000 )
                  (  0.0000000 -1.0000000  0.0000000 )       (  0.2500000 )


      isym = 15      90 deg rotation - cart. axis [-1,0,0]       

 cryst.   s(15) = (     0          0          1      )    f =(  0.2500000 )
                  (    -1          0          1      )       (  0.2500000 )
                  (     0         -1          1      )       (  0.2500000 )

 cart.    s(15) = (  1.0000000  0.0000000  0.0000000 )    f =( -0.2500000 )
                  (  0.0000000  0.0000000  1.0000000 )       (  0.2500000 )
                  (  0.0000000 -1.0000000  0.0000000 )       (  0.2500000 )


      isym = 16      90 deg rotation - cart. axis [1,0,0]        

 cryst.   s(16) = (     1         -1          0      )    f =(  0.2500000 )
                  (     1          0         -1      )       (  0.2500000 )
                  (     1          0          0      )       (  0.2500000 )

 cart.    s(16) = (  1.0000000  0.0000000  0.0000000 )    f =( -0.2500000 )
                  (  0.0000000  0.0000000 -1.0000000 )       (  0.2500000 )
                  (  0.0000000  1.0000000  0.0000000 )       (  0.2500000 )


      isym = 17     120 deg rotation - cart. axis [-1,-1,-1]     

 cryst.   s(17) = (    -1          0          1      )
                  (    -1          1          0      )
                  (    -1          0          0      )

 cart.    s(17) = (  0.0000000  1.0000000  0.0000000 )
                  (  0.0000000  0.0000000  1.0000000 )
                  (  1.0000000  0.0000000  0.0000000 )


      isym = 18     120 deg rotation - cart. axis [-1,1,1]       

 cryst.   s(18) = (     0          1          0      )
                  (     0          0          1      )
                  (     1          0          0      )

 cart.    s(18) = (  0.0000000 -1.0000000  0.0000000 )
                  (  0.0000000  0.0000000  1.0000000 )
                  ( -1.0000000  0.0000000  0.0000000 )


      isym = 19     120 deg rotation - cart. axis [1,1,-1]       

 cryst.   s(19) = (     1          0         -1      )
                  (     0          0         -1      )
                  (     0          1         -1      )

 cart.    s(19) = (  0.0000000  1.0000000  0.0000000 )
                  (  0.0000000  0.0000000 -1.0000000 )
                  ( -1.0000000  0.0000000  0.0000000 )


      isym = 20     120 deg rotation - cart. axis [1,-1,1]       

 cryst.   s(20) = (     0         -1          0      )
                  (     1         -1          0      )
                  (     0         -1          1      )

 cart.    s(20) = (  0.0000000 -1.0000000  0.0000000 )
                  (  0.0000000  0.0000000 -1.0000000 )
                  (  1.0000000  0.0000000  0.0000000 )


      isym = 21     120 deg rotation - cart. axis [1,1,1]        

 cryst.   s(21) = (     0          0         -1      )
                  (     0          1         -1      )
                  (     1          0         -1      )

 cart.    s(21) = (  0.0000000  0.0000000  1.0000000 )
                  (  1.0000000  0.0000000  0.0000000 )
                  (  0.0000000  1.0000000  0.0000000 )


      isym = 22     120 deg rotation - cart. axis [-1,1,-1]      

 cryst.   s(22) = (    -1          1          0      )
                  (    -1          0          0      )
                  (    -1          0          1      )

 cart.    s(22) = (  0.0000000  0.0000000  1.0000000 )
                  ( -1.0000000  0.0000000  0.0000000 )
                  (  0.0000000 -1.0000000  0.0000000 )


      isym = 23     120 deg rotation - cart. axis [1,-1,-1]      

 cryst.   s(23) = (     0          0          1      )
                  (     1          0          0      )
                  (     0          1          0      )

 cart.    s(23) = (  0.0000000  0.0000000 -1.0000000 )
                  ( -1.0000000  0.0000000  0.0000000 )
                  (  0.0000000  1.0000000  0.0000000 )


      isym = 24     120 deg rotation - cart. axis [-1,-1,1]      

 cryst.   s(24) = (     1         -1          0      )
                  (     0         -1          1      )
                  (     0         -1          0      )

 cart.    s(24) = (  0.0000000  0.0000000 -1.0000000 )
                  (  1.0000000  0.0000000  0.0000000 )
                  (  0.0000000 -1.0000000  0.0000000 )


      isym = 25     inversion                                    

 cryst.   s(25) = (    -1          0          0      )    f =(  0.2500000 )
                  (     0         -1          0      )       (  0.2500000 )
                  (     0          0         -1      )       (  0.2500000 )

 cart.    s(25) = ( -1.0000000  0.0000000  0.0000000 )    f =( -0.2500000 )
                  (  0.0000000 -1.0000000  0.0000000 )       (  0.2500000 )
                  (  0.0000000  0.0000000 -1.0000000 )       (  0.2500000 )


      isym = 26     inv. 180 deg rotation - cart. axis [0,0,1]   

 cryst.   s(26) = (     0         -1          1      )    f =(  0.2500000 )
                  (    -1          0          1      )       (  0.2500000 )
                  (     0          0          1      )       (  0.2500000 )

 cart.    s(26) = (  1.0000000  0.0000000  0.0000000 )    f =( -0.2500000 )
                  (  0.0000000  1.0000000  0.0000000 )       (  0.2500000 )
                  (  0.0000000  0.0000000 -1.0000000 )       (  0.2500000 )


      isym = 27     inv. 180 deg rotation - cart. axis [0,1,0]   

 cryst.   s(27) = (     1          0          0      )    f =(  0.2500000 )
                  (     1          0         -1      )       (  0.2500000 )
                  (     1         -1          0      )       (  0.2500000 )

 cart.    s(27) = (  1.0000000  0.0000000  0.0000000 )    f =( -0.2500000 )
                  (  0.0000000 -1.0000000  0.0000000 )       (  0.2500000 )
                  (  0.0000000  0.0000000  1.0000000 )       (  0.2500000 )


      isym = 28     inv. 180 deg rotation - cart. axis [1,0,0]   

 cryst.   s(28) = (     0          1         -1      )    f =(  0.2500000 )
                  (     0          1          0      )       (  0.2500000 )
                  (    -1          1          0      )       (  0.2500000 )

 cart.    s(28) = ( -1.0000000  0.0000000  0.0000000 )    f =( -0.2500000 )
                  (  0.0000000  1.0000000  0.0000000 )       (  0.2500000 )
                  (  0.0000000  0.0000000  1.0000000 )       (  0.2500000 )


      isym = 29     inv. 180 deg rotation - cart. axis [1,1,0]   

 cryst.   s(29) = (     0          1          0      )
                  (     1          0          0      )
                  (     0          0          1      )

 cart.    s(29) = (  0.0000000 -1.0000000  0.0000000 )
                  ( -1.0000000  0.0000000  0.0000000 )
                  (  0.0000000  0.0000000  1.0000000 )


      isym = 30     inv. 180 deg rotation - cart. axis [1,-1,0]  

 cryst.   s(30) = (     1          0         -1      )
                  (     0          1         -1      )
                  (     0          0         -1      )

 cart.    s(30) = (  0.0000000  1.0000000  0.0000000 )
                  (  1.0000000  0.0000000  0.0000000 )
                  (  0.0000000  0.0000000  1.0000000 )


      isym = 31     inv.  90 deg rotation - cart. axis [0,0,-1]  

 cryst.   s(31) = (     0         -1          0      )
                  (     0         -1          1      )
                  (     1         -1          0      )

 cart.    s(31) = (  0.0000000 -1.0000000  0.0000000 )
                  (  1.0000000  0.0000000  0.0000000 )
                  (  0.0000000  0.0000000 -1.0000000 )


      isym = 32     inv.  90 deg rotation - cart. axis [0,0,1]   

 cryst.   s(32) = (    -1          0          1      )
                  (    -1          0          0      )
                  (    -1          1          0      )

 cart.    s(32) = (  0.0000000  1.0000000  0.0000000 )
                  ( -1.0000000  0.0000000  0.0000000 )
                  (  0.0000000  0.0000000 -1.0000000 )


      isym = 33     inv. 180 deg rotation - cart. axis [1,0,1]   

 cryst.   s(33) = (     1          0          0      )
                  (     0          0          1      )
                  (     0          1          0      )

 cart.    s(33) = (  0.0000000  0.0000000 -1.0000000 )
                  (  0.0000000  1.0000000  0.0000000 )
                  ( -1.0000000  0.0000000  0.0000000 )


      isym = 34     inv. 180 deg rotation - cart. axis [-1,0,1]  

 cryst.   s(34) = (    -1          0          0      )
                  (    -1          1          0      )
                  (    -1          0          1      )

 cart.    s(34) = (  0.0000000  0.0000000  1.0000000 )
                  (  0.0000000  1.0000000  0.0000000 )
                  (  1.0000000  0.0000000  0.0000000 )


      isym = 35     inv.  90 deg rotation - cart. axis [0,1,0]   

 cryst.   s(35) = (     0         -1          1      )
                  (     1         -1          0      )
                  (     0         -1          0      )

 cart.    s(35) = (  0.0000000  0.0000000 -1.0000000 )
                  (  0.0000000 -1.0000000  0.0000000 )
                  (  1.0000000  0.0000000  0.0000000 )


      isym = 36     inv.  90 deg rotation - cart. axis [0,-1,0]  

 cryst.   s(36) = (     0          1         -1      )
                  (     0          0         -1      )
                  (     1          0         -1      )

 cart.    s(36) = (  0.0000000  0.0000000  1.0000000 )
                  (  0.0000000 -1.0000000  0.0000000 )
                  ( -1.0000000  0.0000000  0.0000000 )


      isym = 37     inv. 180 deg rotation - cart. axis [0,1,1]   

 cryst.   s(37) = (     1         -1          0      )
                  (     0         -1          0      )
                  (     0         -1          1      )

 cart.    s(37) = (  1.0000000  0.0000000  0.0000000 )
                  (  0.0000000  0.0000000 -1.0000000 )
                  (  0.0000000 -1.0000000  0.0000000 )


      isym = 38     inv. 180 deg rotation - cart. axis [0,1,-1]  

 cryst.   s(38) = (     0          0          1      )
                  (     0          1          0      )
                  (     1          0          0      )

 cart.    s(38) = (  1.0000000  0.0000000  0.0000000 )
                  (  0.0000000  0.0000000  1.0000000 )
                  (  0.0000000  1.0000000  0.0000000 )


      isym = 39     inv.  90 deg rotation - cart. axis [-1,0,0]  

 cryst.   s(39) = (     0          0         -1      )
                  (     1          0         -1      )
                  (     0          1         -1      )

 cart.    s(39) = ( -1.0000000  0.0000000  0.0000000 )
                  (  0.0000000  0.0000000 -1.0000000 )
                  (  0.0000000  1.0000000  0.0000000 )


      isym = 40     inv.  90 deg rotation - cart. axis [1,0,0]   

 cryst.   s(40) = (    -1          1          0      )
                  (    -1          0          1      )
                  (    -1          0          0      )

 cart.    s(40) = ( -1.0000000  0.0000000  0.0000000 )
                  (  0.0000000  0.0000000  1.0000000 )
                  (  0.0000000 -1.0000000  0.0000000 )


      isym = 41     inv. 120 deg rotation - cart. axis [-1,-1,-1]

 cryst.   s(41) = (     1          0         -1      )    f =(  0.2500000 )
                  (     1         -1          0      )       (  0.2500000 )
                  (     1          0          0      )       (  0.2500000 )

 cart.    s(41) = (  0.0000000 -1.0000000  0.0000000 )    f =( -0.2500000 )
                  (  0.0000000  0.0000000 -1.0000000 )       (  0.2500000 )
                  ( -1.0000000  0.0000000  0.0000000 )       (  0.2500000 )


      isym = 42     inv. 120 deg rotation - cart. axis [-1,1,1]  

 cryst.   s(42) = (     0         -1          0      )    f =(  0.2500000 )
                  (     0          0         -1      )       (  0.2500000 )
                  (    -1          0          0      )       (  0.2500000 )

 cart.    s(42) = (  0.0000000  1.0000000  0.0000000 )    f =( -0.2500000 )
                  (  0.0000000  0.0000000 -1.0000000 )       (  0.2500000 )
                  (  1.0000000  0.0000000  0.0000000 )       (  0.2500000 )


      isym = 43     inv. 120 deg rotation - cart. axis [1,1,-1]  

 cryst.   s(43) = (    -1          0          1      )    f =(  0.2500000 )
                  (     0          0          1      )       (  0.2500000 )
                  (     0         -1          1      )       (  0.2500000 )

 cart.    s(43) = (  0.0000000 -1.0000000  0.0000000 )    f =( -0.2500000 )
                  (  0.0000000  0.0000000  1.0000000 )       (  0.2500000 )
                  (  1.0000000  0.0000000  0.0000000 )       (  0.2500000 )


      isym = 44     inv. 120 deg rotation - cart. axis [1,-1,1]  

 cryst.   s(44) = (     0          1          0      )    f =(  0.2500000 )
                  (    -1          1          0      )       (  0.2500000 )
                  (     0          1         -1      )       (  0.2500000 )

 cart.    s(44) = (  0.0000000  1.0000000  0.0000000 )    f =( -0.2500000 )
                  (  0.0000000  0.0000000  1.0000000 )       (  0.2500000 )
                  ( -1.0000000  0.0000000  0.0000000 )       (  0.2500000 )


      isym = 45     inv. 120 deg rotation - cart. axis [1,1,1]   

 cryst.   s(45) = (     0          0          1      )    f =(  0.2500000 )
                  (     0         -1          1      )       (  0.2500000 )
                  (    -1          0          1      )       (  0.2500000 )

 cart.    s(45) = (  0.0000000  0.0000000 -1.0000000 )    f =( -0.2500000 )
                  ( -1.0000000  0.0000000  0.0000000 )       (  0.2500000 )
                  (  0.0000000 -1.0000000  0.0000000 )       (  0.2500000 )


      isym = 46     inv. 120 deg rotation - cart. axis [-1,1,-1] 

 cryst.   s(46) = (     1         -1          0      )    f =(  0.2500000 )
                  (     1          0          0      )       (  0.2500000 )
                  (     1          0         -1      )       (  0.2500000 )

 cart.    s(46) = (  0.0000000  0.0000000 -1.0000000 )    f =( -0.2500000 )
                  (  1.0000000  0.0000000  0.0000000 )       (  0.2500000 )
                  (  0.0000000  1.0000000  0.0000000 )       (  0.2500000 )


      isym = 47     inv. 120 deg rotation - cart. axis [1,-1,-1] 

 cryst.   s(47) = (     0          0         -1      )    f =(  0.2500000 )
                  (    -1          0          0      )       (  0.2500000 )
                  (     0         -1          0      )       (  0.2500000 )

 cart.    s(47) = (  0.0000000  0.0000000  1.0000000 )    f =( -0.2500000 )
                  (  1.0000000  0.0000000  0.0000000 )       (  0.2500000 )
                  (  0.0000000 -1.0000000  0.0000000 )       (  0.2500000 )


      isym = 48     inv. 120 deg rotation - cart. axis [-1,-1,1] 

 cryst.   s(48) = (    -1          1          0      )    f =(  0.2500000 )
                  (     0          1         -1      )       (  0.2500000 )
                  (     0          1          0      )       (  0.2500000 )

 cart.    s(48) = (  0.0000000  0.0000000  1.0000000 )    f =( -0.2500000 )
                  ( -1.0000000  0.0000000  0.0000000 )       (  0.2500000 )
                  (  0.0000000  1.0000000  0.0000000 )       (  0.2500000 )


     point group O_h (m-3m) 
     there are 10 classes
     the character table:

       E     8C3   3C2   6C4   6C2'  i     8S6   3s_h  6S4   6s_d 
A_1g   1.00  1.00  1.00  1.00  1.00  1.00  1.00  1.00  1.00  1.00
A_2g   1.00  1.00  1.00 -1.00 -1.00  1.00  1.00  1.00 -1.00 -1.00
E_g    2.00 -1.00  2.00  0.00  0.00  2.00 -1.00  2.00  0.00  0.00
T_1g   3.00  0.00 -1.00  1.00 -1.00  3.00  0.00 -1.00  1.00 -1.00
T_2g   3.00  0.00 -1.00 -1.00  1.00  3.00  0.00 -1.00 -1.00  1.00
A_1u   1.00  1.00  1.00  1.00  1.00 -1.00 -1.00 -1.00 -1.00 -1.00
A_2u   1.00  1.00  1.00 -1.00 -1.00 -1.00 -1.00 -1.00  1.00  1.00
E_u    2.00 -1.00  2.00  0.00  0.00 -2.00  1.00 -2.00  0.00  0.00
T_1u   3.00  0.00 -1.00  1.00 -1.00 -3.00  0.00  1.00 -1.00  1.00
T_2u   3.00  0.00 -1.00 -1.00  1.00 -3.00  0.00  1.00  1.00 -1.00

     the symmetry operations in each class and the name of the first element:

     E        1
          identity                                               
     8C3     17   19   20   18   24   21   22   23
          120 deg rotation - cart. axis [-1,-1,-1]               
     3C2      2    4    3
          180 deg rotation - cart. axis [0,0,1]                  
     6C4      7    8   15   16   12   11
           90 deg rotation - cart. axis [0,0,-1]                 
     6C2'     5    6   14   13   10    9
          180 deg rotation - cart. axis [1,1,0]                  
     i       25
          inversion                                              
     8S6     41   43   44   42   48   45   46   47
          inv. 120 deg rotation - cart. axis [-1,-1,-1]          
     3s_h    26   28   27
          inv. 180 deg rotation - cart. axis [0,0,1]             
     6S4     31   32   39   40   36   35
          inv.  90 deg rotation - cart. axis [0,0,-1]            
     6s_d    29   30   38   37   34   33
          inv. 180 deg rotation - cart. axis [1,1,0]             

   Cartesian axes

     site n.     atom                  positions (alat units)
         1           Si  tau(   1) = (   0.0000000   0.0000000   0.0000000  )
         2           Si  tau(   2) = (   0.2500000   0.2500000   0.2500000  )

   Crystallographic axes

     site n.     atom                  positions (cryst. coord.)
         1           Si  tau(   1) = (  0.0000000  0.0000000  0.0000000  )
         2           Si  tau(   2) = ( -0.2500000  0.7500000 -0.2500000  )

     number of k points=    60
                       cart. coord. in units 2pi/alat
        k(    1) = (  -0.0625000   0.0625000   0.0625000), wk =   0.0078125
        k(    2) = (  -0.1875000   0.1875000  -0.0625000), wk =   0.0234375
        k(    3) = (  -0.3125000   0.3125000  -0.1875000), wk =   0.0234375
        k(    4) = (  -0.4375000   0.4375000  -0.3125000), wk =   0.0234375
        k(    5) = (   0.4375000  -0.4375000   0.5625000), wk =   0.0234375
        k(    6) = (   0.3125000  -0.3125000   0.4375000), wk =   0.0234375
        k(    7) = (   0.1875000  -0.1875000   0.3125000), wk =   0.0234375
        k(    8) = (   0.0625000  -0.0625000   0.1875000), wk =   0.0234375
        k(    9) = (  -0.0625000   0.3125000   0.0625000), wk =   0.0234375
        k(   10) = (  -0.1875000   0.4375000  -0.0625000), wk =   0.0468750
        k(   11) = (  -0.3125000   0.5625000  -0.1875000), wk =   0.0468750
        k(   12) = (   0.5625000  -0.3125000   0.6875000), wk =   0.0468750
        k(   13) = (   0.4375000  -0.1875000   0.5625000), wk =   0.0468750
        k(   14) = (   0.3125000  -0.0625000   0.4375000), wk =   0.0468750
        k(   15) = (   0.1875000   0.0625000   0.3125000), wk =   0.0468750
        k(   16) = (  -0.0625000   0.5625000   0.0625000), wk =   0.0234375
        k(   17) = (  -0.1875000   0.6875000  -0.0625000), wk =   0.0468750
        k(   18) = (   0.6875000  -0.1875000   0.8125000), wk =   0.0468750
        k(   19) = (   0.5625000  -0.0625000   0.6875000), wk =   0.0468750
        k(   20) = (   0.4375000   0.0625000   0.5625000), wk =   0.0468750
        k(   21) = (   0.3125000   0.1875000   0.4375000), wk =   0.0468750
        k(   22) = (  -0.0625000   0.8125000   0.0625000), wk =   0.0234375
        k(   23) = (   0.8125000  -0.0625000   0.9375000), wk =   0.0468750
        k(   24) = (   0.6875000   0.0625000   0.8125000), wk =   0.0468750
        k(   25) = (   0.5625000   0.1875000   0.6875000), wk =   0.0468750
        k(   26) = (   0.4375000   0.3125000   0.5625000), wk =   0.0468750
        k(   27) = (  -0.0625000  -0.9375000   0.0625000), wk =   0.0234375
        k(   28) = (  -0.1875000  -0.8125000  -0.0625000), wk =   0.0468750
        k(   29) = (  -0.3125000  -0.6875000  -0.1875000), wk =   0.0468750
        k(   30) = (  -0.0625000  -0.6875000   0.0625000), wk =   0.0234375
        k(   31) = (  -0.1875000  -0.5625000  -0.0625000), wk =   0.0468750
        k(   32) = (  -0.0625000  -0.4375000   0.0625000), wk =   0.0234375
        k(   33) = (  -0.1875000   0.1875000   0.1875000), wk =   0.0078125
        k(   34) = (  -0.3125000   0.3125000   0.0625000), wk =   0.0234375
        k(   35) = (  -0.4375000   0.4375000  -0.0625000), wk =   0.0234375
        k(   36) = (   0.4375000  -0.4375000   0.8125000), wk =   0.0234375
        k(   37) = (   0.3125000  -0.3125000   0.6875000), wk =   0.0234375
        k(   38) = (   0.1875000  -0.1875000   0.5625000), wk =   0.0234375
        k(   39) = (  -0.1875000   0.4375000   0.1875000), wk =   0.0234375
        k(   40) = (  -0.3125000   0.5625000   0.0625000), wk =   0.0468750
        k(   41) = (   0.5625000  -0.3125000   0.9375000), wk =   0.0468750
        k(   42) = (   0.4375000  -0.1875000   0.8125000), wk =   0.0468750
        k(   43) = (   0.3125000  -0.0625000   0.6875000), wk =   0.0468750
        k(   44) = (  -0.1875000   0.6875000   0.1875000), wk =   0.0234375
        k(   45) = (   0.6875000  -0.1875000   1.0625000), wk =   0.0468750
        k(   46) = (   0.5625000  -0.0625000   0.9375000), wk =   0.0468750
        k(   47) = (   0.4375000   0.0625000   0.8125000), wk =   0.0468750
        k(   48) = (  -0.1875000  -1.0625000   0.1875000), wk =   0.0234375
        k(   49) = (  -0.3125000  -0.9375000   0.0625000), wk =   0.0468750
        k(   50) = (  -0.1875000  -0.8125000   0.1875000), wk =   0.0234375
        k(   51) = (  -0.3125000   0.3125000   0.3125000), wk =   0.0078125
        k(   52) = (  -0.4375000   0.4375000   0.1875000), wk =   0.0234375
        k(   53) = (   0.4375000  -0.4375000   1.0625000), wk =   0.0234375
        k(   54) = (   0.3125000  -0.3125000   0.9375000), wk =   0.0234375
        k(   55) = (  -0.3125000   0.5625000   0.3125000), wk =   0.0234375
        k(   56) = (   0.5625000  -0.3125000   1.1875000), wk =   0.0468750
        k(   57) = (   0.4375000  -0.1875000   1.0625000), wk =   0.0468750
        k(   58) = (  -0.3125000  -1.1875000   0.3125000), wk =   0.0234375
        k(   59) = (  -0.4375000   0.4375000   0.4375000), wk =   0.0078125
        k(   60) = (   0.4375000  -0.4375000   1.3125000), wk =   0.0234375

                       cryst. coord.
        k(    1) = (   0.0625000   0.0625000   0.0625000), wk =   0.0078125
        k(    2) = (   0.0625000   0.0625000   0.1875000), wk =   0.0234375
        k(    3) = (   0.0625000   0.0625000   0.3125000), wk =   0.0234375
        k(    4) = (   0.0625000   0.0625000   0.4375000), wk =   0.0234375
        k(    5) = (   0.0625000   0.0625000  -0.4375000), wk =   0.0234375
        k(    6) = (   0.0625000   0.0625000  -0.3125000), wk =   0.0234375
        k(    7) = (   0.0625000   0.0625000  -0.1875000), wk =   0.0234375
        k(    8) = (   0.0625000   0.0625000  -0.0625000), wk =   0.0234375
        k(    9) = (   0.0625000   0.1875000   0.1875000), wk =   0.0234375
        k(   10) = (   0.0625000   0.1875000   0.3125000), wk =   0.0468750
        k(   11) = (   0.0625000   0.1875000   0.4375000), wk =   0.0468750
        k(   12) = (   0.0625000   0.1875000  -0.4375000), wk =   0.0468750
        k(   13) = (   0.0625000   0.1875000  -0.3125000), wk =   0.0468750
        k(   14) = (   0.0625000   0.1875000  -0.1875000), wk =   0.0468750
        k(   15) = (   0.0625000   0.1875000  -0.0625000), wk =   0.0468750
        k(   16) = (   0.0625000   0.3125000   0.3125000), wk =   0.0234375
        k(   17) = (   0.0625000   0.3125000   0.4375000), wk =   0.0468750
        k(   18) = (   0.0625000   0.3125000  -0.4375000), wk =   0.0468750
        k(   19) = (   0.0625000   0.3125000  -0.3125000), wk =   0.0468750
        k(   20) = (   0.0625000   0.3125000  -0.1875000), wk =   0.0468750
        k(   21) = (   0.0625000   0.3125000  -0.0625000), wk =   0.0468750
        k(   22) = (   0.0625000   0.4375000   0.4375000), wk =   0.0234375
        k(   23) = (   0.0625000   0.4375000  -0.4375000), wk =   0.0468750
        k(   24) = (   0.0625000   0.4375000  -0.3125000), wk =   0.0468750
        k(   25) = (   0.0625000   0.4375000  -0.1875000), wk =   0.0468750
        k(   26) = (   0.0625000   0.4375000  -0.0625000), wk =   0.0468750
        k(   27) = (   0.0625000  -0.4375000  -0.4375000), wk =   0.0234375
        k(   28) = (   0.0625000  -0.4375000  -0.3125000), wk =   0.0468750
        k(   29) = (   0.0625000  -0.4375000  -0.1875000), wk =   0.0468750
        k(   30) = (   0.0625000  -0.3125000  -0.3125000), wk =   0.0234375
        k(   31) = (   0.0625000  -0.3125000  -0.1875000), wk =   0.0468750
        k(   32) = (   0.0625000  -0.1875000  -0.1875000), wk =   0.0234375
        k(   33) = (   0.1875000   0.1875000   0.1875000), wk =   0.0078125
        k(   34) = (   0.1875000   0.1875000   0.3125000), wk =   0.0234375
        k(   35) = (   0.1875000   0.1875000   0.4375000), wk =   0.0234375
        k(   36) = (   0.1875000   0.1875000  -0.4375000), wk =   0.0234375
        k(   37) = (   0.1875000   0.1875000  -0.3125000), wk =   0.0234375
        k(   38) = (   0.1875000   0.1875000  -0.1875000), wk =   0.0234375
        k(   39) = (   0.1875000   0.3125000   0.3125000), wk =   0.0234375
        k(   40) = (   0.1875000   0.3125000   0.4375000), wk =   0.0468750
        k(   41) = (   0.1875000   0.3125000  -0.4375000), wk =   0.0468750
        k(   42) = (   0.1875000   0.3125000  -0.3125000), wk =   0.0468750
        k(   43) = (   0.1875000   0.3125000  -0.1875000), wk =   0.0468750
        k(   44) = (   0.1875000   0.4375000   0.4375000), wk =   0.0234375
        k(   45) = (   0.1875000   0.4375000  -0.4375000), wk =   0.0468750
        k(   46) = (   0.1875000   0.4375000  -0.3125000), wk =   0.0468750
        k(   47) = (   0.1875000   0.4375000  -0.1875000), wk =   0.0468750
        k(   48) = (   0.1875000  -0.4375000  -0.4375000), wk =   0.0234375
        k(   49) = (   0.1875000  -0.4375000  -0.3125000), wk =   0.0468750
        k(   50) = (   0.1875000  -0.3125000  -0.3125000), wk =   0.0234375
        k(   51) = (   0.3125000   0.3125000   0.3125000), wk =   0.0078125
        k(   52) = (   0.3125000   0.3125000   0.4375000), wk =   0.0234375
        k(   53) = (   0.3125000   0.3125000  -0.4375000), wk =   0.0234375
        k(   54) = (   0.3125000   0.3125000  -0.3125000), wk =   0.0234375
        k(   55) = (   0.3125000   0.4375000   0.4375000), wk =   0.0234375
        k(   56) = (   0.3125000   0.4375000  -0.4375000), wk =   0.0468750
        k(   57) = (   0.3125000   0.4375000  -0.3125000), wk =   0.0468750
        k(   58) = (   0.3125000  -0.4375000  -0.4375000), wk =   0.0234375
        k(   59) = (   0.4375000   0.4375000   0.4375000), wk =   0.0078125
        k(   60) = (   0.4375000   0.4375000  -0.4375000), wk =   0.0234375

     Dense  grid:     3143 G-vectors     FFT dimensions: (  24,  24,  24)

     Dynamical RAM for                 wfc:       0.02 MB

     Dynamical RAM for     wfc (w. buffer):       1.49 MB

     Dynamical RAM for           str. fact:       0.05 MB

     Dynamical RAM for           local pot:       0.00 MB

     Dynamical RAM for          nlocal pot:       0.22 MB

     Dynamical RAM for                qrad:       1.17 MB

     Dynamical RAM for          rho,v,vnew:       0.46 MB

     Dynamical RAM for               rhoin:       0.15 MB

     Dynamical RAM for            rho*nmix:       0.77 MB

     Dynamical RAM for           G-vectors:       0.20 MB

     Dynamical RAM for          h,s,v(r/c):       0.01 MB

     Dynamical RAM for          <psi|beta>:       0.00 MB

     Dynamical RAM for                 psi:       0.10 MB

     Dynamical RAM for                hpsi:       0.10 MB

     Dynamical RAM for                spsi:       0.10 MB

     Dynamical RAM for      wfcinit/wfcrot:       0.10 MB

     Dynamical RAM for           addusdens:       9.02 MB

     Estimated static dynamical RAM per process >       5.13 MB

     Estimated max dynamical RAM per process >      14.15 MB

     Check: negative core charge=   -0.000010

     Initial potential from superposition of free atoms

     starting charge    7.99888, renormalised to    8.00000
     Starting wfcs are    8 randomized atomic wfcs
     Checking if some PAW data can be deallocated... 

     total cpu time spent up to now is        8.3 secs

     Self-consistent Calculation

     iteration #  1     ecut=    20.00 Ry     beta= 0.30
     Davidson diagonalization with overlap
     ethr =  1.00E-02,  avg # of iterations =  2.0

     Threshold (ethr) on eigenvalues was too large:
     Diagonalizing with lowered threshold

     Davidson diagonalization with overlap
     ethr =  7.13E-04,  avg # of iterations =  1.2

     total cpu time spent up to now is       11.9 secs

     total energy              =     -93.45356248 Ry
     Harris-Foulkes estimate   =     -93.46143285 Ry
     estimated scf accuracy    <       0.05654614 Ry

     iteration #  2     ecut=    20.00 Ry     beta= 0.30
     Davidson diagonalization with overlap
     ethr =  7.07E-04,  avg # of iterations =  1.0

     total cpu time spent up to now is       14.2 secs

     total energy              =     -93.44815164 Ry
     Harris-Foulkes estimate   =     -93.45427920 Ry
     estimated scf accuracy    <       0.02496392 Ry

     iteration #  3     ecut=    20.00 Ry     beta= 0.30
     Davidson diagonalization with overlap
     ethr =  3.12E-04,  avg # of iterations =  1.1

     total cpu time spent up to now is       16.1 secs

     total energy              =     -93.44992042 Ry
     Harris-Foulkes estimate   =     -93.45008218 Ry
     estimated scf accuracy    <       0.00039280 Ry

     iteration #  4     ecut=    20.00 Ry     beta= 0.30
     Davidson diagonalization with overlap
     ethr =  4.91E-06,  avg # of iterations =  3.3

     total cpu time spent up to now is       18.8 secs

     total energy              =     -93.45026696 Ry
     Harris-Foulkes estimate   =     -93.45029341 Ry
     estimated scf accuracy    <       0.00013984 Ry

     iteration #  5     ecut=    20.00 Ry     beta= 0.30
     Davidson diagonalization with overlap
     ethr =  1.75E-06,  avg # of iterations =  1.2

     total cpu time spent up to now is       20.8 secs

     total energy              =     -93.45027449 Ry
     Harris-Foulkes estimate   =     -93.45027420 Ry
     estimated scf accuracy    <       0.00000020 Ry

     iteration #  6     ecut=    20.00 Ry     beta= 0.30
     Davidson diagonalization with overlap
     ethr =  2.51E-09,  avg # of iterations =  4.2

     total cpu time spent up to now is       23.8 secs

     total energy              =     -93.45027519 Ry
     Harris-Foulkes estimate   =     -93.45027609 Ry
     estimated scf accuracy    <       0.00000238 Ry

     iteration #  7     ecut=    20.00 Ry     beta= 0.30
     Davidson diagonalization with overlap
     ethr =  2.51E-09,  avg # of iterations =  2.7

     total cpu time spent up to now is       26.2 secs

     total energy              =     -93.45027531 Ry
     Harris-Foulkes estimate   =     -93.45027534 Ry
     estimated scf accuracy    <       0.00000005 Ry

     iteration #  8     ecut=    20.00 Ry     beta= 0.30
     Davidson diagonalization with overlap
     ethr =  6.04E-10,  avg # of iterations =  1.2

     total cpu time spent up to now is       28.3 secs

     total energy              =     -93.45027530 Ry
     Harris-Foulkes estimate   =     -93.45027531 Ry
     estimated scf accuracy    <       0.00000003 Ry

     iteration #  9     ecut=    20.00 Ry     beta= 0.30
     Davidson diagonalization with overlap
     ethr =  4.18E-10,  avg # of iterations =  1.4

     total cpu time spent up to now is       30.3 secs

     total energy              =     -93.45027530 Ry
     Harris-Foulkes estimate   =     -93.45027530 Ry
     estimated scf accuracy    <          4.9E-09 Ry

     iteration # 10     ecut=    20.00 Ry     beta= 0.30
     Davidson diagonalization with overlap
     ethr =  6.10E-11,  avg # of iterations =  2.0

     total cpu time spent up to now is       32.4 secs

     total energy              =     -93.45027530 Ry
     Harris-Foulkes estimate   =     -93.45027530 Ry
     estimated scf accuracy    <          3.1E-09 Ry

     iteration # 11     ecut=    20.00 Ry     beta= 0.30
     Davidson diagonalization with overlap
     ethr =  3.84E-11,  avg # of iterations =  1.9

     total cpu time spent up to now is       34.5 secs

     End of self-consistent calculation

          k =-0.0625 0.0625 0.0625 (   405 PWs)   bands (ev):

    -5.6385   5.8737   6.3186   6.3186

     occupation numbers 
     1.0000   1.0000   1.0000   1.0000

          k =-0.1875 0.1875-0.0625 (   391 PWs)   bands (ev):

    -5.3630   4.3535   5.4802   6.2010

     occupation numbers 
     1.0000   1.0000   1.0000   1.0000

          k =-0.3125 0.3125-0.1875 (   396 PWs)   bands (ev):

    -4.6974   2.0722   4.9854   5.7249

     occupation numbers 
     1.0000   1.0000   1.0000   1.0000

          k =-0.4375 0.4375-0.3125 (   403 PWs)   bands (ev):

    -3.7636   0.1296   4.7689   5.3054

     occupation numbers 
     1.0000   1.0000   1.0000   1.0000

          k = 0.4375-0.4375 0.5625 (   401 PWs)   bands (ev):

    -3.2930  -0.5991   4.8244   5.0789

     occupation numbers 
     1.0000   1.0000   1.0000   1.0000

          k = 0.3125-0.3125 0.4375 (   405 PWs)   bands (ev):

    -4.0847   0.7056   5.0962   5.1201

     occupation numbers 
     1.0000   1.0000   1.0000   1.0000

          k = 0.1875-0.1875 0.3125 (   390 PWs)   bands (ev):

    -4.9585   2.8210   5.3770   5.5965

     occupation numbers 
     1.0000   1.0000   1.0000   1.0000

          k = 0.0625-0.0625 0.1875 (   393 PWs)   bands (ev):

    -5.5000   5.1227   5.8732   6.0501

     occupation numbers 
     1.0000   1.0000   1.0000   1.0000

          k =-0.0625 0.3125 0.0625 (   394 PWs)   bands (ev):

    -5.2246   4.2313   5.2943   5.3961

     occupation numbers 
     1.0000   1.0000   1.0000   1.0000

          k =-0.1875 0.4375-0.0625 (   393 PWs)   bands (ev):

    -4.6853   2.6996   4.2958   5.1267

     occupation numbers 
     1.0000   1.0000   1.0000   1.0000

          k =-0.3125 0.5625-0.1875 (   400 PWs)   bands (ev):

    -3.8134   0.7789   3.8032   4.6966

     occupation numbers 
     1.0000   1.0000   1.0000   1.0000

          k = 0.5625-0.3125 0.6875 (   398 PWs)   bands (ev):

    -3.0177  -0.4793   3.5112   4.5984

     occupation numbers 
     1.0000   1.0000   1.0000   1.0000

          k = 0.4375-0.1875 0.5625 (   400 PWs)   bands (ev):

    -3.4976   0.2402   3.4279   4.8959

     occupation numbers 
     1.0000   1.0000   1.0000   1.0000

          k = 0.3125-0.0625 0.4375 (   399 PWs)   bands (ev):

    -4.4297   2.0288   3.7210   5.4249

     occupation numbers 
     1.0000   1.0000   1.0000   1.0000

          k = 0.1875 0.0625 0.3125 (   392 PWs)   bands (ev):

    -5.0905   3.5289   4.8841   5.8133

     occupation numbers 
     1.0000   1.0000   1.0000   1.0000

          k =-0.0625 0.5625 0.0625 (   405 PWs)   bands (ev):

    -4.2741   2.2123   4.1484   4.2739

     occupation numbers 
     1.0000   1.0000   1.0000   1.0000

          k =-0.1875 0.6875-0.0625 (   405 PWs)   bands (ev):

    -3.5001   0.9444   3.3319   3.9134

     occupation numbers 
     1.0000   1.0000   1.0000   1.0000

          k = 0.6875-0.1875 0.8125 (   404 PWs)   bands (ev):

    -2.5679  -0.2978   2.4634   3.8819

     occupation numbers 
     1.0000   1.0000   1.0000   1.0000

          k = 0.5625-0.0625 0.6875 (   397 PWs)   bands (ev):

    -2.6388  -0.2027   2.0934   4.2399

     occupation numbers 
     1.0000   1.0000   1.0000   1.0000

          k = 0.4375 0.0625 0.5625 (   404 PWs)   bands (ev):

    -3.5682   0.7651   2.7259   4.8487

     occupation numbers 
     1.0000   1.0000   1.0000   1.0000

          k = 0.3125 0.1875 0.4375 (   399 PWs)   bands (ev):

    -4.3123   1.3871   4.4293   5.3235

     occupation numbers 
     1.0000   1.0000   1.0000   1.0000

          k =-0.0625 0.8125 0.0625 (   407 PWs)   bands (ev):

    -2.8291   0.0631   3.4353   3.6646

     occupation numbers 
     1.0000   1.0000   1.0000   1.0000

          k = 0.8125-0.0625 0.9375 (   407 PWs)   bands (ev):

    -1.8896  -0.9524   2.8506   3.4082

     occupation numbers 
     1.0000   1.0000   1.0000   1.0000

          k = 0.6875 0.0625 0.8125 (   401 PWs)   bands (ev):

    -1.9782  -0.7898   2.0884   3.7343

     occupation numbers 
     1.0000   1.0000   1.0000   1.0000

          k = 0.5625 0.1875 0.6875 (   403 PWs)   bands (ev):

    -2.7552  -0.4133   2.6914   4.3573

     occupation numbers 
     1.0000   1.0000   1.0000   1.0000

          k = 0.4375 0.3125 0.5625 (   398 PWs)   bands (ev):

    -3.3849  -0.2844   4.2591   4.9731

     occupation numbers 
     1.0000   1.0000   1.0000   1.0000

          k =-0.0625-0.9375 0.0625 (   400 PWs)   bands (ev):

    -1.9454  -0.9724   3.2934   3.5404

     occupation numbers 
     1.0000   1.0000   1.0000   1.0000

          k =-0.1875-0.8125-0.0625 (   407 PWs)   bands (ev):

    -2.7391  -0.0016   3.0154   3.5720

     occupation numbers 
     1.0000   1.0000   1.0000   1.0000

          k =-0.3125-0.6875-0.1875 (   402 PWs)   bands (ev):

    -3.2191   0.2302   3.1003   4.1926

     occupation numbers 
     1.0000   1.0000   1.0000   1.0000

          k =-0.0625-0.6875 0.0625 (   403 PWs)   bands (ev):

    -3.6094   1.1360   3.7200   3.9110

     occupation numbers 
     1.0000   1.0000   1.0000   1.0000

          k =-0.1875-0.5625-0.0625 (   402 PWs)   bands (ev):

    -4.1527   1.8464   3.7695   4.4449

     occupation numbers 
     1.0000   1.0000   1.0000   1.0000

          k =-0.0625-0.4375 0.0625 (   398 PWs)   bands (ev):

    -4.8147   3.2549   4.7173   4.7428

     occupation numbers 
     1.0000   1.0000   1.0000   1.0000

          k =-0.1875 0.1875 0.1875 (   387 PWs)   bands (ev):

    -5.2276   3.6054   5.8627   5.8627

     occupation numbers 
     1.0000   1.0000   1.0000   1.0000

          k =-0.3125 0.3125 0.0625 (   390 PWs)   bands (ev):

    -4.8241   2.7665   4.2923   5.8886

     occupation numbers 
     1.0000   1.0000   1.0000   1.0000

          k =-0.4375 0.4375-0.0625 (   402 PWs)   bands (ev):

    -4.0537   1.3740   3.1746   5.3640

     occupation numbers 
     1.0000   1.0000   1.0000   1.0000

          k = 0.4375-0.4375 0.8125 (   404 PWs)   bands (ev):

    -3.1238  -0.1746   3.0347   4.8120

     occupation numbers 
     1.0000   1.0000   1.0000   1.0000

          k = 0.3125-0.3125 0.6875 (   401 PWs)   bands (ev):

    -3.1082  -0.2030   3.3494   4.4808

     occupation numbers 
     1.0000   1.0000   1.0000   1.0000

          k = 0.1875-0.1875 0.5625 (   399 PWs)   bands (ev):

    -4.0372   1.3699   3.9789   4.4529

     occupation numbers 
     1.0000   1.0000   1.0000   1.0000

          k =-0.1875 0.4375 0.1875 (   396 PWs)   bands (ev):

    -4.5597   2.0782   4.8413   4.8848

     occupation numbers 
     1.0000   1.0000   1.0000   1.0000

          k =-0.3125 0.5625 0.0625 (   405 PWs)   bands (ev):

    -3.9141   1.3174   3.2328   4.6852

     occupation numbers 
     1.0000   1.0000   1.0000   1.0000

          k = 0.5625-0.3125 0.9375 (   403 PWs)   bands (ev):

    -2.9915   0.1951   2.4111   4.0896

     occupation numbers 
     1.0000   1.0000   1.0000   1.0000

          k = 0.4375-0.1875 0.8125 (   402 PWs)   bands (ev):

    -2.4820  -0.4470   2.4237   3.7620

     occupation numbers 
     1.0000   1.0000   1.0000   1.0000

          k = 0.3125-0.0625 0.6875 (   406 PWs)   bands (ev):

    -3.2887   0.6035   2.8534   3.9497

     occupation numbers 
     1.0000   1.0000   1.0000   1.0000

          k =-0.1875 0.6875 0.1875 (   402 PWs)   bands (ev):

    -3.4021   0.6540   3.2064   4.1119

     occupation numbers 
     1.0000   1.0000   1.0000   1.0000

          k = 0.6875-0.1875 1.0625 (   403 PWs)   bands (ev):

    -2.5717  -0.1466   2.5950   3.3893

     occupation numbers 
     1.0000   1.0000   1.0000   1.0000

          k = 0.5625-0.0625 0.9375 (   403 PWs)   bands (ev):

    -1.7324  -0.9184   2.2559   2.8647

     occupation numbers 
     1.0000   1.0000   1.0000   1.0000

          k = 0.4375 0.0625 0.8125 (   401 PWs)   bands (ev):

    -2.3554  -0.3638   2.2555   3.3604

     occupation numbers 
     1.0000   1.0000   1.0000   1.0000

          k =-0.1875-1.0625 0.1875 (   405 PWs)   bands (ev):

    -1.9051  -0.9041   2.3664   3.7595

     occupation numbers 
     1.0000   1.0000   1.0000   1.0000

          k =-0.3125-0.9375 0.0625 (   401 PWs)   bands (ev):

    -1.8021  -0.9290   2.4640   3.0940

     occupation numbers 
     1.0000   1.0000   1.0000   1.0000

          k =-0.1875-0.8125 0.1875 (   405 PWs)   bands (ev):

    -2.6731  -0.1133   2.6490   3.8781

     occupation numbers 
     1.0000   1.0000   1.0000   1.0000

          k =-0.3125 0.3125 0.3125 (   401 PWs)   bands (ev):

    -4.4480   1.3449   5.4385   5.4385

     occupation numbers 
     1.0000   1.0000   1.0000   1.0000

          k =-0.4375 0.4375 0.1875 (   400 PWs)   bands (ev):

    -3.9523   0.7623   3.9311   5.3500

     occupation numbers 
     1.0000   1.0000   1.0000   1.0000

          k = 0.4375-0.4375 1.0625 (   403 PWs)   bands (ev):

    -3.1328   0.2516   2.3291   4.7448

     occupation numbers 
     1.0000   1.0000   1.0000   1.0000

          k = 0.3125-0.3125 0.9375 (   400 PWs)   bands (ev):

    -2.2794  -0.5403   1.9679   4.1777

     occupation numbers 
     1.0000   1.0000   1.0000   1.0000

          k =-0.3125 0.5625 0.3125 (   401 PWs)   bands (ev):

    -3.6257   0.1844   4.2905   4.7620

     occupation numbers 
     1.0000   1.0000   1.0000   1.0000

          k = 0.5625-0.3125 1.1875 (   403 PWs)   bands (ev):

    -2.9834  -0.1648   2.9249   4.2613

     occupation numbers 
     1.0000   1.0000   1.0000   1.0000

          k = 0.4375-0.1875 1.0625 (   398 PWs)   bands (ev):

    -2.1379  -0.5993   2.0626   3.5178

     occupation numbers 
     1.0000   1.0000   1.0000   1.0000

          k =-0.3125-1.1875 0.3125 (   400 PWs)   bands (ev):

    -2.6103  -0.4437   2.5062   4.2811

     occupation numbers 
     1.0000   1.0000   1.0000   1.0000

          k =-0.4375 0.4375 0.4375 (   401 PWs)   bands (ev):

    -3.5216  -0.3546   5.2134   5.2134

     occupation numbers 
     1.0000   1.0000   1.0000   1.0000

          k = 0.4375-0.4375 1.3125 (   399 PWs)   bands (ev):

    -3.1562  -0.5300   3.9602   4.9327

     occupation numbers 
     1.0000   1.0000   1.0000   1.0000

     highest occupied level (ev):     6.3186

!    total energy              =     -93.45027530 Ry
     Harris-Foulkes estimate   =     -93.45027530 Ry
     estimated scf accuracy    <          2.6E-10 Ry

     total all-electron energy =     -1160.142005 Ry

     The total energy is the sum of the following terms:

     one-electron contribution =       5.88555833 Ry
     hartree contribution      =       1.08362507 Ry
     xc contribution           =     -12.33113284 Ry
     ewald contribution        =     -16.89975859 Ry
     one-center paw contrib.   =     -71.18856727 Ry
      -> PAW hartree energy AE =       6.18526861 Ry
      -> PAW hartree energy PS =      -6.16263506 Ry
      -> PAW xc energy AE      =     -81.83763625 Ry
      -> PAW xc energy PS      =      10.62643542 Ry
      -> total E_H with PAW    =       1.10625862 Ry
      -> total E_XC with PAW   =     -83.54233366 Ry

     convergence has been achieved in  11 iterations

     Writing output data file Si.save\

     init_run     :      4.22s CPU      3.48s WALL (       1 calls)
     electrons    :     45.94s CPU     26.23s WALL (       1 calls)

     Called by init_run:
     wfcinit      :      1.22s CPU      0.71s WALL (       1 calls)
     wfcinit:atom :      0.06s CPU      0.03s WALL (      60 calls)
     wfcinit:wfcr :      1.08s CPU      0.60s WALL (      60 calls)
     potinit      :      1.55s CPU      1.28s WALL (       1 calls)
     hinit0       :      1.19s CPU      1.23s WALL (       1 calls)

     Called by electrons:
     c_bands      :     22.84s CPU     13.39s WALL (      12 calls)
     sum_band     :      5.36s CPU      3.54s WALL (      12 calls)
     v_of_rho     :      0.42s CPU      0.20s WALL (      12 calls)
     v_h          :      0.00s CPU      0.01s WALL (      12 calls)
     v_xc         :      0.42s CPU      0.18s WALL (      12 calls)
     newd         :      1.00s CPU      0.70s WALL (      12 calls)
     PAW_pot      :     17.91s CPU      9.63s WALL (      12 calls)
     mix_rho      :      0.05s CPU      0.05s WALL (      12 calls)

     Called by c_bands:
     init_us_2    :      1.62s CPU      0.89s WALL (    1500 calls)
     cegterg      :     18.75s CPU     10.94s WALL (     720 calls)

     Called by sum_band:
     sum_band:bec :      0.23s CPU      0.21s WALL (     720 calls)
     addusdens    :      1.36s CPU      1.03s WALL (      12 calls)

     Called by *egterg:
     h_psi        :     15.56s CPU      9.04s WALL (    2180 calls)
     s_psi        :      1.12s CPU      0.31s WALL (    2180 calls)
     g_psi        :      0.22s CPU      0.22s WALL (    1400 calls)
     cdiaghg      :      0.75s CPU      0.40s WALL (    2060 calls)
     cegterg:over :      0.47s CPU      0.24s WALL (    1400 calls)
     cegterg:upda :      0.52s CPU      0.34s WALL (    1400 calls)
     cegterg:last :      0.06s CPU      0.11s WALL (     784 calls)

     Called by h_psi:
     h_psi:pot    :     15.41s CPU      8.76s WALL (    2180 calls)
     h_psi:calbec :      1.06s CPU      0.42s WALL (    2180 calls)
     vloc_psi     :     13.67s CPU      7.94s WALL (    2180 calls)
     add_vuspsi   :      0.64s CPU      0.35s WALL (    2180 calls)

     General routines
     calbec       :      1.30s CPU      0.50s WALL (    2900 calls)
     fft          :      0.08s CPU      0.05s WALL (     133 calls)
     ffts         :      0.00s CPU      0.00s WALL (      12 calls)
     fftw         :     10.84s CPU      4.64s WALL (   19014 calls)

     Parallel routines

     PAW routines
     PAW_pot      :     17.91s CPU      9.63s WALL (      12 calls)
     PAW_symme    :      0.05s CPU      0.04s WALL (      24 calls)

     PWSCF        :     54.89s CPU     34.84s WALL


   This run was terminated on:  18: 8:48  17Feb2023            

=------------------------------------------------------------------------------=
   JOB DONE.
=------------------------------------------------------------------------------=
