Siesta Version  : siesta-4.1b4+104
Architecture    : x86_64-unknown-linux-gnu--Intel
Compiler version: ifort (IFORT) 13.0.1 20121010
Compiler flags  : mpifc -g
PP flags        : -DMPI -DFC_HAVE_FLUSH -DFC_HAVE_ABORT -DSIESTA__DIAG_2STAGE
Libraries       : libsiestaLAPACK.a   -Wl,--start-group -lmkl_intel_lp64 -lmkl_core -lmkl_sequeential -lmkl_scalapack_lp64 -lmkl_blacs_intelmpi_lp64 -lmkl_lapack95_lp64 -lmkl_blas95_lp64 -Wl,--end-group
PARALLEL version

* Running on 48 nodes in parallel
>> Start of run:  11-JAN-2020  12:08:25

                           ***********************       
                           *  WELCOME TO SIESTA  *       
                           ***********************       

reinit: Reading from standard input
reinit: Dumped input in INPUT_TMP.74915
************************** Dump of input data file ****************************
SystemName          nanotube (7,7)
SystemLabel         C112
NumberOfAtoms       119
NumberOfSpecies     2
WriteMullikenPop    1
%block ChemicalSpeciesLabel
 1  3  Li      # Species index, atomic number, species label
 2  6  C
%endblock ChemicalSpeciesLabel
#PAO.BasisSize  DZP
PAO.EnergyShift  0.05 eV
PAO.SplitNorm  0.59
MeshCutoff       200.0 Ry
#kgrid_cutoff     5.0 Bohr
%block kgrid_Monkhorst_Pack
  1  0  0   0.0
  0  1  0   0.0
  0  0  1   0.0
%endblock kgrid_Monkhorst_Pack
Spinpolarized false # true
MaxSCFIterations       150
#Diag.ParallelOverK   .true.
SolutionMethod         diagon
NetCharge     0.00
DM.NumberPulay    4
DM.MixingWeight   0.3
DM.UseSaveDM      .true.
NeglNonOverlapInt False
AtomicCoordinatesFormat  NotScaledCartesianAng
XC.functional=LDA
XC.authors=CA
ZM.UnitsLength = Ang
%block Zmatrix
cartesian
  2   4.780112   0.008503   0.088103  1  1  1
  2   4.553791   1.406463   0.088897  1  1  1
  2   2.972618   3.727572   0.088740  1  1  1
  2   1.760420   4.468105   0.088830  1  1  1
  2  -1.048645   4.654003   0.089115  1  1  1
  2  -2.354910   4.103181   0.089529  1  1  1
  2  -4.274318   2.051670   0.088630  1  1  1
  2  -4.725488   0.704724   0.088180  1  1  1
  2  -4.306492  -2.076796   0.085817  1  1  1
  2  -3.488856  -3.235627   0.086043  1  1  1
  2  -1.043841  -4.615439   0.088240  1  1  1
  2   0.370848  -4.736067   0.089111  1  1  1
  2   3.000131  -3.720397   0.086874  1  1  1
  2   3.963118  -2.674802   0.086707  1  1  1
  2   2.409502  -4.124505   1.312353  1  1  1
  2   4.321163  -2.058044   1.308990  1  1  1
  2   4.736635  -0.704028   1.309117  1  1  1
  2   4.285161   2.066177   1.310815  1  1  1
  2   3.489111   3.237061   1.312184  1  1  1
  2   1.077056   4.687028   1.314856  1  1  1
  2  -0.343416   4.777669   1.313817  1  1  1
  2  -2.945514   3.704422   1.310623  1  1  1
  2  -3.908844   2.666040   1.310604  1  1  1
  2  -4.762034  -0.007816   1.312438  1  1  1
  2  -4.561380  -1.409585   1.310731  1  1  1
  2  -2.955754  -3.709198   1.308361  1  1  1
  2  -1.724458  -4.406229   1.309703  1  1  1
  2   1.082408  -4.639211   1.311959  1  1  1
  2   2.987668  -3.704039   2.535665  1  1  1
  2   3.956888  -2.669325   2.533195  1  1  1
  2   4.797273   0.008933   2.530056  1  1  1
  2   4.563948   1.406862   2.531642  1  1  1
  2   2.972513   3.727174   2.534760  1  1  1
  2   1.753605   4.452029   2.536696  1  1  1
  2  -1.051342   4.653050   2.533794  1  1  1
  2  -2.364606   4.119547   2.532455  1  1  1
  2  -4.268504   2.055387   2.535508  1  1  1
  2  -4.693054   0.703443   2.535731  1  1  1
  2  -4.315262  -2.082746   2.532182  1  1  1
  2  -3.493038  -3.242230   2.531430  1  1  1
  2  -1.043304  -4.621637   2.530361  1  1  1
  2   0.370624  -4.730018   2.532655  1  1  1
  2  -1.730083  -4.421482   3.750841  1  1  1
  2   1.071717  -4.617997   3.755772  1  1  1
  2   2.387617  -4.093186   3.756471  1  1  1
  2   4.325904  -2.053367   3.754134  1  1  1
  2   4.774104  -0.704025   3.753268  1  1  1
  2   4.300170   2.069230   3.754789  1  1  1
  2   3.489129   3.232096   3.755775  1  1  1
  2   1.067360   4.654663   3.757890  1  1  1
  2  -0.345506   4.763918   3.755869  1  1  1
  2  -2.957609   3.722218   3.754563  1  1  1
  2  -3.912260   2.673106   3.756622  1  1  1
  2  -4.756261  -0.009014   3.756687  1  1  1
  2  -4.576188  -1.417189   3.757223  1  1  1
  2  -2.964710  -3.724197   3.752600  1  1  1
  2  -1.055844  -4.649631   4.975313  1  1  1
  2   0.362735  -4.735166   4.975188  1  1  1
  2   2.969997  -3.682621   4.977256  1  1  1
  2   3.952063  -2.661423   4.977915  1  1  1
  2   4.834334   0.013915   4.978676  1  1  1
  2   4.584665   1.414134   4.978557  1  1  1
  2   2.966155   3.713960   4.979402  1  1  1
  2   1.744391   4.429770   4.979485  1  1  1
  2  -1.056472   4.669096   4.977148  1  1  1
  2  -2.380694   4.145826   4.976956  1  1  1
  2  -4.262607   2.050891   4.979008  1  1  1
  2  -4.689693   0.701183   4.979913  1  1  1
  2  -4.298642  -2.079044   4.980489  1  1  1
  2  -3.490525  -3.243158   4.978564  1  1  1
  2  -4.564167  -1.414476   6.199829  1  1  1
  2  -2.972396  -3.732187   6.200600  1  1  1
  2  -1.746574  -4.453464   6.200453  1  1  1
  2   1.067949  -4.618546   6.199732  1  1  1
  2   2.380638  -4.082811   6.199517  1  1  1
  2   4.316657  -2.048620   6.201817  1  1  1
  2   4.756248  -0.699158   6.203368  1  1  1
  2   4.304898   2.071792   6.201607  1  1  1
  2   3.490765   3.231234   6.200870  1  1  1
  2   1.064602   4.643188   6.200447  1  1  1
  2  -0.347135   4.767203   6.200796  1  1  1
  2  -2.961991   3.726665   6.203622  1  1  1
  2  -3.907433   2.665792   6.203122  1  1  1
  2  -4.766964  -0.010876   6.199329  1  1  1
  2  -4.302081  -2.078336   7.421498  1  1  1
  2  -3.493609  -3.242306   7.423062  1  1  1
  2  -1.055363  -4.641627   7.425539  1  1  1
  2   0.362577  -4.726232   7.424381  1  1  1
  2   2.977406  -3.691953   7.420371  1  1  1
  2   3.950899  -2.663674   7.422075  1  1  1
  2   4.789678   0.013646   7.426308  1  1  1
  2   4.568335   1.412036   7.425296  1  1  1
  2   2.969952   3.718869   7.423434  1  1  1
  2   1.746028   4.430340   7.422538  1  1  1
  2  -1.049897   4.651849   7.425724  1  1  1
  2  -2.363347   4.118835   7.427310  1  1  1
  2  -4.269548   2.047356   7.423206  1  1  1
  2  -4.714249   0.701124   7.421014  1  1  1
  2  -3.909898   2.663232   8.646297  1  1  1
  2  -4.806668  -0.010032   8.644311  1  1  1
  2  -4.587646  -1.418398   8.644463  1  1  1
  2  -2.967163  -3.722368   8.646813  1  1  1
  2  -1.731699  -4.417017   8.648892  1  1  1
  2   1.073557  -4.617162   8.644318  1  1  1
  2   2.397994  -4.108272   8.642808  1  1  1
  2   4.316880  -2.054837   8.644899  1  1  1
  2   4.731652  -0.701082   8.646490  1  1  1
  2   4.294558   2.070054   8.647591  1  1  1
  2   3.492158   3.237173   8.647648  1  1  1
  2   1.072761   4.667706   8.644591  1  1  1
  2  -0.342745   4.766524   8.645644  1  1  1
  2  -2.940214   3.695635   8.647878  1  1  1
  1  -1.034753   2.218030   5.641010  1  1  1
  1  -2.240603  -0.915010   3.198425  1  1  1
  1   0.327352   2.492160   0.370867  1  1  1
  1  -2.452441  -0.172535  -0.713681  1  1  1
  1   2.492050  -0.269455   4.730235  1  1  1
  1  -0.330009  -2.456262   6.097344  1  1  1
  1   0.957632  -2.278866   0.398557  1  1  1
%endblock Zmatrix
LatticeConstant       97.8061228574  Ang
%block LatticeParameters
  1.0 1.0 0.1 90. 90. 90.   #14.8921728
%endblock LatticeParameters
WriteCoorXmol     True
WriteForces .true.
WriteMullikenPop     1
%block ProjectedDensityOfStates
   -24.00  15.00  0.100  1000  eV
%endblock ProjectedDensityOfStates
WriteCoorStep      .true.
WriteForces        .true.
WriteMDHistory     .true.
MD.UseSaveXV       T
MD.NoseMass  10.0 Ry*fs**2
MD.TypeOfRun         Nose
MD.InitialTemperature 30 K
MD.TargetTemperature  30 K
MD.Initial.Time.Step      1
MD.Final.Time.Step        25
MD.Length.Time.Step       1.0 fs
************************** End of input data file *****************************

reinit: -----------------------------------------------------------------------
reinit: System Name: nanotube (7,7
reinit: -----------------------------------------------------------------------
reinit: System Label: C112
reinit: -----------------------------------------------------------------------

initatom: Reading input for the pseudopotentials and atomic orbitals ----------
Species number:   1 Atomic number:    3 Label: Li
Species number:   2 Atomic number:    6 Label: C
 
Ground state valence configuration:   2s01
Reading pseudopotential information in formatted form from Li.psf

Valence configuration for pseudopotential generation:
2s( 1.00) rc: 2.28
2p( 0.00) rc: 2.28
3d( 0.00) rc: 2.59
4f( 0.00) rc: 2.59
Ground state valence configuration:   2s02  2p02
Reading pseudopotential information in formatted form from C.psf

Valence configuration for pseudopotential generation:
2s( 2.00) rc: 1.25
2p( 2.00) rc: 1.25
3d( 0.00) rc: 1.25
4f( 0.00) rc: 1.25
For Li, standard SIESTA heuristics set lmxkb to 2
 (one more than the basis l, including polarization orbitals).
Use PS.lmax or PS.KBprojectors blocks to override.
For C, standard SIESTA heuristics set lmxkb to 3
 (one more than the basis l, including polarization orbitals).
Use PS.lmax or PS.KBprojectors blocks to override.

<basis_specs>
===============================================================================
Li                   Z=   3    Mass=  6.9400        Charge= 0.17977+309
Lmxo=0 Lmxkb= 2    BasisType=split      Semic=F
L=0  Nsemic=0  Cnfigmx=2
          i=1  nzeta=2  polorb=1  (2s)
            splnorm:   0.59000    
               vcte:    0.0000    
               rinn:    0.0000    
               qcoe:    0.0000    
               qyuk:    0.0000    
               qwid:   0.10000E-01
                rcs:    0.0000      0.0000    
            lambdas:   1.00000     1.00000    
-------------------------------------------------------------------------------
L=0  Nkbl=1  erefs: 0.17977+309
L=1  Nkbl=1  erefs: 0.17977+309
L=2  Nkbl=1  erefs: 0.17977+309
===============================================================================
</basis_specs>

atom: Called for Li                    (Z =   3)

read_vps: Pseudopotential generation method:
read_vps: ATM 3.2.2 Troullier-Martins                       
Total valence charge:    1.00000

read_vps: Pseudopotential includes a core correction:
read_vps: Pseudo-core for xc-correction

xc_check: Exchange-correlation functional:
xc_check: Ceperley-Alder
V l=0 = -2*Zval/r beyond r=  2.2278
V l=1 = -2*Zval/r beyond r=  2.2278
V l=2 = -2*Zval/r beyond r=  2.5245
All V_l potentials equal beyond r=  2.4932
This should be close to max(r_c) in ps generation
All pots = -2*Zval/r beyond r=  2.5245

VLOCAL1: 99.0% of the norm of Vloc inside      6.983 Ry
VLOCAL1: 99.9% of the norm of Vloc inside     15.915 Ry
atom: Maximum radius for 4*pi*r*r*local-pseudopot. charge    2.89679
atom: Maximum radius for r*vlocal+2*Zval:    2.46219
GHOST: No ghost state for L =  0
GHOST: No ghost state for L =  1
GHOST: No ghost state for L =  2

KBgen: Kleinman-Bylander projectors: 
   l= 0   rc=  2.687416   el= -0.211535   Ekb=  1.687927   kbcos=  0.233983
   l= 1   rc=  2.755470   el= -0.083009   Ekb= -1.097314   kbcos= -0.153392
   l= 2   rc=  2.860793   el=  0.002356   Ekb= -0.211588   kbcos= -0.031024

KBgen: Total number of  Kleinman-Bylander projectors:    9
atom: -------------------------------------------------------------------------

atom: SANKEY-TYPE ORBITALS:
atom: Selected multiple-zeta basis: split     

SPLIT: Orbitals with angular momentum L= 0

SPLIT: Basis orbitals for state 2s

SPLIT: PAO cut-off radius determined from an
SPLIT: energy shift=  0.003675 Ry

   izeta = 1
                 lambda =    1.000000
                     rc =    9.987207
                 energy =   -0.208154
                kinetic =    0.151718
    potential(screened) =   -0.359872
       potential(ionic) =   -0.537364

   izeta = 2
                 rmatch =    5.761768
              splitnorm =    0.590000
                 energy =   -0.011018
                kinetic =    0.491809
    potential(screened) =   -0.502827
       potential(ionic) =   -0.688445

POLgen: Perturbative polarization orbital with L=  1

POLgen: Polarization orbital for state 2s

   izeta = 1
                     rc =    9.987207
                 energy =   -0.016884
                kinetic =    0.305445
    potential(screened) =   -0.322329
       potential(ionic) =   -0.502117
atom: Total number of Sankey-type orbitals:  5

atm_pop: Valence configuration (for local Pseudopot. screening):
 2s( 1.00)                                                            
Vna: chval, zval:    1.00000   1.00000

Vna:  Cut-off radius for the neutral-atom potential:   9.987207
comcore: Pseudo-core radius Rcore=  3.494364

atom: _________________________________________________________________________

<basis_specs>
===============================================================================
C                    Z=   6    Mass=  12.010        Charge= 0.17977+309
Lmxo=1 Lmxkb= 3    BasisType=split      Semic=F
L=0  Nsemic=0  Cnfigmx=2
          i=1  nzeta=2  polorb=0  (2s)
            splnorm:   0.59000    
               vcte:    0.0000    
               rinn:    0.0000    
               qcoe:    0.0000    
               qyuk:    0.0000    
               qwid:   0.10000E-01
                rcs:    0.0000      0.0000    
            lambdas:   1.00000     1.00000    
L=1  Nsemic=0  Cnfigmx=2
          i=1  nzeta=2  polorb=1  (2p)
            splnorm:   0.59000    
               vcte:    0.0000    
               rinn:    0.0000    
               qcoe:    0.0000    
               qyuk:    0.0000    
               qwid:   0.10000E-01
                rcs:    0.0000      0.0000    
            lambdas:   1.00000     1.00000    
-------------------------------------------------------------------------------
L=0  Nkbl=1  erefs: 0.17977+309
L=1  Nkbl=1  erefs: 0.17977+309
L=2  Nkbl=1  erefs: 0.17977+309
L=3  Nkbl=1  erefs: 0.17977+309
===============================================================================
</basis_specs>

atom: Called for C                     (Z =   6)

read_vps: Pseudopotential generation method:
read_vps: ATM3      Troullier-Martins                       
Total valence charge:    4.00000

xc_check: Exchange-correlation functional:
xc_check: Ceperley-Alder
V l=0 = -2*Zval/r beyond r=  1.3951
V l=1 = -2*Zval/r beyond r=  1.3777
V l=2 = -2*Zval/r beyond r=  1.3777
V l=3 = -2*Zval/r beyond r=  1.3777
All V_l potentials equal beyond r=  1.2311
This should be close to max(r_c) in ps generation
All pots = -2*Zval/r beyond r=  1.3951

VLOCAL1: 99.0% of the norm of Vloc inside     28.641 Ry
VLOCAL1: 99.9% of the norm of Vloc inside     65.273 Ry
atom: Maximum radius for 4*pi*r*r*local-pseudopot. charge    1.48507
atom: Maximum radius for r*vlocal+2*Zval:    1.27815
GHOST: No ghost state for L =  0
GHOST: No ghost state for L =  1
GHOST: No ghost state for L =  2
GHOST: No ghost state for L =  3

KBgen: Kleinman-Bylander projectors: 
   l= 0   rc=  1.600766   el= -1.001946   Ekb=  7.816946   kbcos=  0.279978
   l= 1   rc=  1.620907   el= -0.398597   Ekb= -4.829535   kbcos= -0.287433
   l= 2   rc=  1.836783   el=  0.002326   Ekb= -1.327964   kbcos= -0.005365
   l= 3   rc=  1.979871   el=  0.003420   Ekb= -0.522285   kbcos= -0.000569

KBgen: Total number of  Kleinman-Bylander projectors:   16
atom: -------------------------------------------------------------------------

atom: SANKEY-TYPE ORBITALS:
atom: Selected multiple-zeta basis: split     

SPLIT: Orbitals with angular momentum L= 0

SPLIT: Basis orbitals for state 2s

SPLIT: PAO cut-off radius determined from an
SPLIT: energy shift=  0.003675 Ry

   izeta = 1
                 lambda =    1.000000
                     rc =    5.120028
                 energy =   -0.998772
                kinetic =    0.858242
    potential(screened) =   -1.857014
       potential(ionic) =   -5.418547

   izeta = 2
                 rmatch =    2.300349
              splitnorm =    0.590000
                 energy =    0.102977
                kinetic =    2.861156
    potential(screened) =   -2.758179
       potential(ionic) =   -6.824757

SPLIT: Orbitals with angular momentum L= 1

SPLIT: Basis orbitals for state 2p

SPLIT: PAO cut-off radius determined from an
SPLIT: energy shift=  0.003675 Ry

   izeta = 1
                 lambda =    1.000000
                     rc =    6.253707
                 energy =   -0.395142
                kinetic =    2.439321
    potential(screened) =   -2.834463
       potential(ionic) =   -6.264070

   izeta = 2
                 rmatch =    2.030003
              splitnorm =    0.590000
                 energy =    0.951237
                kinetic =    7.827527
    potential(screened) =   -6.876290
       potential(ionic) =  -11.218295

POLgen: Perturbative polarization orbital with L=  2

POLgen: Polarization orbital for state 2p

   izeta = 1
                     rc =    6.253707
                 energy =    1.009535
                kinetic =    2.120051
    potential(screened) =   -1.110516
       potential(ionic) =   -3.842863
atom: Total number of Sankey-type orbitals: 13

atm_pop: Valence configuration (for local Pseudopot. screening):
 2s( 2.00)                                                            
 2p( 2.00)                                                            
Vna: chval, zval:    4.00000   4.00000

Vna:  Cut-off radius for the neutral-atom potential:   6.253707

atom: _________________________________________________________________________

prinput: Basis input ----------------------------------------------------------

PAO.BasisType split     

%block ChemicalSpeciesLabel
    1    3 Li                      # Species index, atomic number, species label
    2    6 C                       # Species index, atomic number, species label
%endblock ChemicalSpeciesLabel

%block PAO.Basis                 # Define Basis set
Li                    1                    # Species label, number of l-shells
 n=2   0   2 P   1                   # n, l, Nzeta, Polarization, NzetaPol
   9.987      5.762   
   1.000      1.000   
C                     2                    # Species label, number of l-shells
 n=2   0   2                         # n, l, Nzeta 
   5.120      2.300   
   1.000      1.000   
 n=2   1   2 P   1                   # n, l, Nzeta, Polarization, NzetaPol
   6.254      2.030   
   1.000      1.000   
%endblock PAO.Basis

prinput: ----------------------------------------------------------------------

coor:   Atomic-coordinates input format  =     Cartesian coordinates
coor:                                          (in Angstroms)
read_Zmatrix: Length units: Ang       
read_Zmatrix: Angle  units: rad       
read_Zmatrix: Force tolerances:
read_Zmatrix:    for lengths =     0.001556 Ry/Bohr
read_Zmatrix:    for angles  =     0.003565 Ry/rad

read_Zmatrix: Maximum displacements:
read_Zmatrix:    for lengths =     0.200000 Bohr
read_Zmatrix:    for angles  =     0.003000 rad
%block Zmatrix
cartesian
  2   4.780112   0.008503   0.088103  1  1  1
  2   4.553791   1.406463   0.088897  1  1  1
  2   2.972618   3.727572   0.088740  1  1  1
  2   1.760420   4.468105   0.088830  1  1  1
  2  -1.048645   4.654003   0.089115  1  1  1
  2  -2.354910   4.103181   0.089529  1  1  1
  2  -4.274318   2.051670   0.088630  1  1  1
  2  -4.725488   0.704724   0.088180  1  1  1
  2  -4.306492  -2.076796   0.085817  1  1  1
  2  -3.488856  -3.235627   0.086043  1  1  1
  2  -1.043841  -4.615439   0.088240  1  1  1
  2   0.370848  -4.736067   0.089111  1  1  1
  2   3.000131  -3.720397   0.086874  1  1  1
  2   3.963118  -2.674802   0.086707  1  1  1
  2   2.409502  -4.124505   1.312353  1  1  1
  2   4.321163  -2.058044   1.308990  1  1  1
  2   4.736635  -0.704028   1.309117  1  1  1
  2   4.285161   2.066177   1.310815  1  1  1
  2   3.489111   3.237061   1.312184  1  1  1
  2   1.077056   4.687028   1.314856  1  1  1
  2  -0.343416   4.777669   1.313817  1  1  1
  2  -2.945514   3.704422   1.310623  1  1  1
  2  -3.908844   2.666040   1.310604  1  1  1
  2  -4.762034  -0.007816   1.312438  1  1  1
  2  -4.561380  -1.409585   1.310731  1  1  1
  2  -2.955754  -3.709198   1.308361  1  1  1
  2  -1.724458  -4.406229   1.309703  1  1  1
  2   1.082408  -4.639211   1.311959  1  1  1
  2   2.987668  -3.704039   2.535665  1  1  1
  2   3.956888  -2.669325   2.533195  1  1  1
  2   4.797273   0.008933   2.530056  1  1  1
  2   4.563948   1.406862   2.531642  1  1  1
  2   2.972513   3.727174   2.534760  1  1  1
  2   1.753605   4.452029   2.536696  1  1  1
  2  -1.051342   4.653050   2.533794  1  1  1
  2  -2.364606   4.119547   2.532455  1  1  1
  2  -4.268504   2.055387   2.535508  1  1  1
  2  -4.693054   0.703443   2.535731  1  1  1
  2  -4.315262  -2.082746   2.532182  1  1  1
  2  -3.493038  -3.242230   2.531430  1  1  1
  2  -1.043304  -4.621637   2.530361  1  1  1
  2   0.370624  -4.730018   2.532655  1  1  1
  2  -1.730083  -4.421482   3.750841  1  1  1
  2   1.071717  -4.617997   3.755772  1  1  1
  2   2.387617  -4.093186   3.756471  1  1  1
  2   4.325904  -2.053367   3.754134  1  1  1
  2   4.774104  -0.704025   3.753268  1  1  1
  2   4.300170   2.069230   3.754789  1  1  1
  2   3.489129   3.232096   3.755775  1  1  1
  2   1.067360   4.654663   3.757890  1  1  1
  2  -0.345506   4.763918   3.755869  1  1  1
  2  -2.957609   3.722218   3.754563  1  1  1
  2  -3.912260   2.673106   3.756622  1  1  1
  2  -4.756261  -0.009014   3.756687  1  1  1
  2  -4.576188  -1.417189   3.757223  1  1  1
  2  -2.964710  -3.724197   3.752600  1  1  1
  2  -1.055844  -4.649631   4.975313  1  1  1
  2   0.362735  -4.735166   4.975188  1  1  1
  2   2.969997  -3.682621   4.977256  1  1  1
  2   3.952063  -2.661423   4.977915  1  1  1
  2   4.834334   0.013915   4.978676  1  1  1
  2   4.584665   1.414134   4.978557  1  1  1
  2   2.966155   3.713960   4.979402  1  1  1
  2   1.744391   4.429770   4.979485  1  1  1
  2  -1.056472   4.669096   4.977148  1  1  1
  2  -2.380694   4.145826   4.976956  1  1  1
  2  -4.262607   2.050891   4.979008  1  1  1
  2  -4.689693   0.701183   4.979913  1  1  1
  2  -4.298642  -2.079044   4.980489  1  1  1
  2  -3.490525  -3.243158   4.978564  1  1  1
  2  -4.564167  -1.414476   6.199829  1  1  1
  2  -2.972396  -3.732187   6.200600  1  1  1
  2  -1.746574  -4.453464   6.200453  1  1  1
  2   1.067949  -4.618546   6.199732  1  1  1
  2   2.380638  -4.082811   6.199517  1  1  1
  2   4.316657  -2.048620   6.201817  1  1  1
  2   4.756248  -0.699158   6.203368  1  1  1
  2   4.304898   2.071792   6.201607  1  1  1
  2   3.490765   3.231234   6.200870  1  1  1
  2   1.064602   4.643188   6.200447  1  1  1
  2  -0.347135   4.767203   6.200796  1  1  1
  2  -2.961991   3.726665   6.203622  1  1  1
  2  -3.907433   2.665792   6.203122  1  1  1
  2  -4.766964  -0.010876   6.199329  1  1  1
  2  -4.302081  -2.078336   7.421498  1  1  1
  2  -3.493609  -3.242306   7.423062  1  1  1
  2  -1.055363  -4.641627   7.425539  1  1  1
  2   0.362577  -4.726232   7.424381  1  1  1
  2   2.977406  -3.691953   7.420371  1  1  1
  2   3.950899  -2.663674   7.422075  1  1  1
  2   4.789678   0.013646   7.426308  1  1  1
  2   4.568335   1.412036   7.425296  1  1  1
  2   2.969952   3.718869   7.423434  1  1  1
  2   1.746028   4.430340   7.422538  1  1  1
  2  -1.049897   4.651849   7.425724  1  1  1
  2  -2.363347   4.118835   7.427310  1  1  1
  2  -4.269548   2.047356   7.423206  1  1  1
  2  -4.714249   0.701124   7.421014  1  1  1
  2  -3.909898   2.663232   8.646297  1  1  1
  2  -4.806668  -0.010032   8.644311  1  1  1
  2  -4.587646  -1.418398   8.644463  1  1  1
  2  -2.967163  -3.722368   8.646813  1  1  1
  2  -1.731699  -4.417017   8.648892  1  1  1
  2   1.073557  -4.617162   8.644318  1  1  1
  2   2.397994  -4.108272   8.642808  1  1  1
  2   4.316880  -2.054837   8.644899  1  1  1
  2   4.731652  -0.701082   8.646490  1  1  1
  2   4.294558   2.070054   8.647591  1  1  1
  2   3.492158   3.237173   8.647648  1  1  1
  2   1.072761   4.667706   8.644591  1  1  1
  2  -0.342745   4.766524   8.645644  1  1  1
  2  -2.940214   3.695635   8.647878  1  1  1
  1  -1.034753   2.218030   5.641010  1  1  1
  1  -2.240603  -0.915010   3.198425  1  1  1
  1   0.327352   2.492160   0.370867  1  1  1
  1  -2.452441  -0.172535  -0.713681  1  1  1
  1   2.492050  -0.269455   4.730235  1  1  1
  1  -0.330009  -2.456262   6.097344  1  1  1
  1   0.957632  -2.278866   0.398557  1  1  1
%endblock Zmatrix
 nZmol:            0
 nSpecies:            2           2           2           2           2
           2           2           2           2           2           2
           2           2           2           2           2           2
           2           2           2           2           2           2
           2           2           2           2           2           2
           2           2           2           2           2           2
           2           2           2           2           2           2
           2           2           2           2           2           2
           2           2           2           2           2           2
           2           2           2           2           2           2
           2           2           2           2           2           2
           2           2           2           2           2           2
           2           2           2           2           2           2
           2           2           2           2           2           2
           2           2           2           2           2           2
           2           2           2           2           2           2
           2           2           2           2           2           2
           2           2           2           2           2           2
           2           2           2           2           2           1
           1           1           1           1           1           1

zmatrix: Z-matrix coordinates: (Ang ; rad )
zmatrix: (Fractional coordinates have been converted to cartesian)
cartesian block    1 (   119 atoms)
      4.78011200      0.00850300      0.08810300
      4.55379100      1.40646300      0.08889700
      2.97261800      3.72757200      0.08874000
      1.76042000      4.46810500      0.08883000
     -1.04864500      4.65400300      0.08911500
     -2.35491000      4.10318100      0.08952900
     -4.27431800      2.05167000      0.08863000
     -4.72548800      0.70472400      0.08818000
     -4.30649200     -2.07679600      0.08581700
     -3.48885600     -3.23562700      0.08604300
     -1.04384100     -4.61543900      0.08824000
      0.37084800     -4.73606700      0.08911100
      3.00013100     -3.72039700      0.08687400
      3.96311800     -2.67480200      0.08670700
      2.40950200     -4.12450500      1.31235300
      4.32116300     -2.05804400      1.30899000
      4.73663500     -0.70402800      1.30911700
      4.28516100      2.06617700      1.31081500
      3.48911100      3.23706100      1.31218400
      1.07705600      4.68702800      1.31485600
     -0.34341600      4.77766900      1.31381700
     -2.94551400      3.70442200      1.31062300
     -3.90884400      2.66604000      1.31060400
     -4.76203400     -0.00781600      1.31243800
     -4.56138000     -1.40958500      1.31073100
     -2.95575400     -3.70919800      1.30836100
     -1.72445800     -4.40622900      1.30970300
      1.08240800     -4.63921100      1.31195900
      2.98766800     -3.70403900      2.53566500
      3.95688800     -2.66932500      2.53319500
      4.79727300      0.00893300      2.53005600
      4.56394800      1.40686200      2.53164200
      2.97251300      3.72717400      2.53476000
      1.75360500      4.45202900      2.53669600
     -1.05134200      4.65305000      2.53379400
     -2.36460600      4.11954700      2.53245500
     -4.26850400      2.05538700      2.53550800
     -4.69305400      0.70344300      2.53573100
     -4.31526200     -2.08274600      2.53218200
     -3.49303800     -3.24223000      2.53143000
     -1.04330400     -4.62163700      2.53036100
      0.37062400     -4.73001800      2.53265500
     -1.73008300     -4.42148200      3.75084100
      1.07171700     -4.61799700      3.75577200
      2.38761700     -4.09318600      3.75647100
      4.32590400     -2.05336700      3.75413400
      4.77410400     -0.70402500      3.75326800
      4.30017000      2.06923000      3.75478900
      3.48912900      3.23209600      3.75577500
      1.06736000      4.65466300      3.75789000
     -0.34550600      4.76391800      3.75586900
     -2.95760900      3.72221800      3.75456300
     -3.91226000      2.67310600      3.75662200
     -4.75626100     -0.00901400      3.75668700
     -4.57618800     -1.41718900      3.75722300
     -2.96471000     -3.72419700      3.75260000
     -1.05584400     -4.64963100      4.97531300
      0.36273500     -4.73516600      4.97518800
      2.96999700     -3.68262100      4.97725600
      3.95206300     -2.66142300      4.97791500
      4.83433400      0.01391500      4.97867600
      4.58466500      1.41413400      4.97855700
      2.96615500      3.71396000      4.97940200
      1.74439100      4.42977000      4.97948500
     -1.05647200      4.66909600      4.97714800
     -2.38069400      4.14582600      4.97695600
     -4.26260700      2.05089100      4.97900800
     -4.68969300      0.70118300      4.97991300
     -4.29864200     -2.07904400      4.98048900
     -3.49052500     -3.24315800      4.97856400
     -4.56416700     -1.41447600      6.19982900
     -2.97239600     -3.73218700      6.20060000
     -1.74657400     -4.45346400      6.20045300
      1.06794900     -4.61854600      6.19973200
      2.38063800     -4.08281100      6.19951700
      4.31665700     -2.04862000      6.20181700
      4.75624800     -0.69915800      6.20336800
      4.30489800      2.07179200      6.20160700
      3.49076500      3.23123400      6.20087000
      1.06460200      4.64318800      6.20044700
     -0.34713500      4.76720300      6.20079600
     -2.96199100      3.72666500      6.20362200
     -3.90743300      2.66579200      6.20312200
     -4.76696400     -0.01087600      6.19932900
     -4.30208100     -2.07833600      7.42149800
     -3.49360900     -3.24230600      7.42306200
     -1.05536300     -4.64162700      7.42553900
      0.36257700     -4.72623200      7.42438100
      2.97740600     -3.69195300      7.42037100
      3.95089900     -2.66367400      7.42207500
      4.78967800      0.01364600      7.42630800
      4.56833500      1.41203600      7.42529600
      2.96995200      3.71886900      7.42343400
      1.74602800      4.43034000      7.42253800
     -1.04989700      4.65184900      7.42572400
     -2.36334700      4.11883500      7.42731000
     -4.26954800      2.04735600      7.42320600
     -4.71424900      0.70112400      7.42101400
     -3.90989800      2.66323200      8.64629700
     -4.80666800     -0.01003200      8.64431100
     -4.58764600     -1.41839800      8.64446300
     -2.96716300     -3.72236800      8.64681300
     -1.73169900     -4.41701700      8.64889200
      1.07355700     -4.61716200      8.64431800
      2.39799400     -4.10827200      8.64280800
      4.31688000     -2.05483700      8.64489900
      4.73165200     -0.70108200      8.64649000
      4.29455800      2.07005400      8.64759100
      3.49215800      3.23717300      8.64764800
      1.07276100      4.66770600      8.64459100
     -0.34274500      4.76652400      8.64564400
     -2.94021400      3.69563500      8.64787800
     -1.03475300      2.21803000      5.64101000
     -2.24060300     -0.91501000      3.19842500
      0.32735200      2.49216000      0.37086700
     -2.45244100     -0.17253500     -0.71368100
      2.49205000     -0.26945500      4.73023500
     -0.33000900     -2.45626200      6.09734400
      0.95763200     -2.27886600      0.39855700


Z-matrix Symbol Section -------
Variables
Constants
------------ End of Z-matrix Information


siesta: WARNING: XV file not found

siesta: Atomic coordinates (Bohr) and species
siesta:      9.03311   0.01607   0.16649  2        1
siesta:      8.60542   2.65783   0.16799  2        2
siesta:      5.61744   7.04409   0.16769  2        3
siesta:      3.32671   8.44350   0.16786  2        4
siesta:     -1.98165   8.79479   0.16840  2        5
siesta:     -4.45014   7.75389   0.16919  2        6
siesta:     -8.07729   3.87710   0.16749  2        7
siesta:     -8.92988   1.33174   0.16664  2        8
siesta:     -8.13809  -3.92458   0.16217  2        9
siesta:     -6.59298  -6.11445   0.16260  2       10
siesta:     -1.97257  -8.72192   0.16675  2       11
siesta:      0.70080  -8.94987   0.16840  2       12
siesta:      5.66943  -7.03053   0.16417  2       13
siesta:      7.48921  -5.05465   0.16385  2       14
siesta:      4.55330  -7.79419   2.47999  2       15
siesta:      8.16582  -3.88914   2.47363  2       16
siesta:      8.95095  -1.33042   2.47387  2       17
siesta:      8.09778   3.90451   2.47708  2       18
siesta:      6.59347   6.11716   2.47967  2       19
siesta:      2.03534   8.85720   2.48472  2       20
siesta:     -0.64896   9.02849   2.48276  2       21
siesta:     -5.56622   7.00035   2.47672  2       22
siesta:     -7.38665   5.03809   2.47668  2       23
siesta:     -8.99894  -0.01477   2.48015  2       24
siesta:     -8.61976  -2.66373   2.47692  2       25
siesta:     -5.58557  -7.00937   2.47244  2       26
siesta:     -3.25875  -8.32657   2.47498  2       27
siesta:      2.04546  -8.76684   2.47924  2       28
siesta:      5.64588  -6.99962   4.79171  2       29
siesta:      7.47744  -5.04430   4.78705  2       30
siesta:      9.06554   0.01688   4.78111  2       31
siesta:      8.62462   2.65858   4.78411  2       32
siesta:      5.61724   7.04334   4.79000  2       33
siesta:      3.31383   8.41312   4.79366  2       34
siesta:     -1.98675   8.79299   4.78818  2       35
siesta:     -4.46846   7.78482   4.78565  2       36
siesta:     -8.06631   3.88412   4.79142  2       37
siesta:     -8.86859   1.32932   4.79184  2       38
siesta:     -8.15467  -3.93582   4.78513  2       39
siesta:     -6.60089  -6.12693   4.78371  2       40
siesta:     -1.97156  -8.73363   4.78169  2       41
siesta:      0.70038  -8.93844   4.78603  2       42
siesta:     -3.26938  -8.35539   7.08807  2       43
siesta:      2.02525  -8.72675   7.09738  2       44
siesta:      4.51194  -7.73500   7.09870  2       45
siesta:      8.17478  -3.88030   7.09429  2       46
siesta:      9.02175  -1.33041   7.09265  2       47
siesta:      8.12615   3.91028   7.09553  2       48
siesta:      6.59350   6.10778   7.09739  2       49
siesta:      2.01702   8.79604   7.10139  2       50
siesta:     -0.65291   9.00250   7.09757  2       51
siesta:     -5.58907   7.03398   7.09510  2       52
siesta:     -7.39310   5.05144   7.09899  2       53
siesta:     -8.98803  -0.01703   7.09911  2       54
siesta:     -8.64775  -2.67810   7.10013  2       55
siesta:     -5.60249  -7.03772   7.09139  2       56
siesta:     -1.99526  -8.78653   9.40198  2       57
siesta:      0.68547  -8.94817   9.40175  2       58
siesta:      5.61248  -6.95915   9.40565  2       59
siesta:      7.46832  -5.02936   9.40690  2       60
siesta:      9.13557   0.02630   9.40834  2       61
siesta:      8.66376   2.67233   9.40811  2       62
siesta:      5.60522   7.01837   9.40971  2       63
siesta:      3.29642   8.37106   9.40987  2       64
siesta:     -1.99644   8.82332   9.40545  2       65
siesta:     -4.49886   7.83448   9.40509  2       66
siesta:     -8.05516   3.87562   9.40897  2       67
siesta:     -8.86224   1.32504   9.41068  2       68
siesta:     -8.12326  -3.92883   9.41176  2       69
siesta:     -6.59614  -6.12868   9.40813  2       70
siesta:     -8.62503  -2.67297  11.71598  2       71
siesta:     -5.61702  -7.05281  11.71744  2       72
siesta:     -3.30055  -8.41583  11.71716  2       73
siesta:      2.01813  -8.72779  11.71580  2       74
siesta:      4.49876  -7.71540  11.71539  2       75
siesta:      8.15730  -3.87133  11.71974  2       76
siesta:      8.98801  -1.32122  11.72267  2       77
siesta:      8.13508   3.91512  11.71934  2       78
siesta:      6.59659   6.10615  11.71795  2       79
siesta:      2.01181   8.77436  11.71715  2       80
siesta:     -0.65599   9.00871  11.71781  2       81
siesta:     -5.59735   7.04238  11.72315  2       82
siesta:     -7.38398   5.03762  11.72221  2       83
siesta:     -9.00826  -0.02055  11.71504  2       84
siesta:     -8.12976  -3.92749  14.02460  2       85
siesta:     -6.60197  -6.12707  14.02756  2       86
siesta:     -1.99435  -8.77141  14.03224  2       87
siesta:      0.68517  -8.93129  14.03005  2       88
siesta:      5.62648  -6.97678  14.02247  2       89
siesta:      7.46612  -5.03362  14.02569  2       90
siesta:      9.05118   0.02579  14.03369  2       91
siesta:      8.63291   2.66836  14.03178  2       92
siesta:      5.61240   7.02765  14.02826  2       93
siesta:      3.29952   8.37213  14.02657  2       94
siesta:     -1.98402   8.79072  14.03259  2       95
siesta:     -4.46608   7.78347  14.03559  2       96
siesta:     -8.06828   3.86894  14.02783  2       97
siesta:     -8.90864   1.32493  14.02369  2       98
siesta:     -7.38864   5.03278  16.33914  2       99
siesta:     -9.08329  -0.01896  16.33539  2      100
siesta:     -8.66940  -2.68038  16.33567  2      101
siesta:     -5.60713  -7.03426  16.34011  2      102
siesta:     -3.27244  -8.34696  16.34404  2      103
siesta:      2.02873  -8.72518  16.33540  2      104
siesta:      4.53155  -7.76351  16.33255  2      105
siesta:      8.15772  -3.88308  16.33650  2      106
siesta:      8.94153  -1.32485  16.33950  2      107
siesta:      8.11554   3.91184  16.34159  2      108
siesta:      6.59922   6.11737  16.34169  2      109
siesta:      2.02723   8.82069  16.33592  2      110
siesta:     -0.64769   9.00743  16.33791  2      111
siesta:     -5.55620   6.98374  16.34213  2      112
siesta:     -1.95540   4.19147  10.65997  1      113
siesta:     -4.23413  -1.72912   6.04415  1      114
siesta:      0.61861   4.70950   0.70084  1      115
siesta:     -4.63444  -0.32604  -1.34866  1      116
siesta:      4.70929  -0.50920   8.93885  1      117
siesta:     -0.62363  -4.64166  11.52231  1      118
siesta:      1.80966  -4.30643   0.75316  1      119
 *** WARNING: Zmatrix form will be used only for input !!
 *** WARNING: Zmatrix form will be used only for input !!
 *** WARNING: Zmatrix form will be used only for input !!
 *** WARNING: Zmatrix form will be used only for input !!
 *** WARNING: Zmatrix form will be used only for input !!
 *** WARNING: Zmatrix form will be used only for input !!
 *** WARNING: Zmatrix form will be used only for input !!
 *** WARNING: Zmatrix form will be used only for input !!
 *** WARNING: Zmatrix form will be used only for input !!
 *** WARNING: Zmatrix form will be used only for input !!
 *** WARNING: Zmatrix form will be used only for input !!
 *** WARNING: Zmatrix form will be used only for input !!

siesta: System type = chain     
 *** WARNING: Zmatrix form will be used only for input !!
 *** WARNING: Zmatrix form will be used only for input !!
 *** WARNING: Zmatrix form will be used only for input !!
 *** WARNING: Zmatrix form will be used only for input !!
 *** WARNING: Zmatrix form will be used only for input !!
 *** WARNING: Zmatrix form will be used only for input !!
 *** WARNING: Zmatrix form will be used only for input !!
 *** WARNING: Zmatrix form will be used only for input !!
 *** WARNING: Zmatrix form will be used only for input !!
 *** WARNING: Zmatrix form will be used only for input !!
 *** WARNING: Zmatrix form will be used only for input !!
 *** WARNING: Zmatrix form will be used only for input !!
 *** WARNING: Zmatrix form will be used only for input !!
 *** WARNING: Zmatrix form will be used only for input !!
 *** WARNING: Zmatrix form will be used only for input !!
 *** WARNING: Zmatrix form will be used only for input !!
 *** WARNING: Zmatrix form will be used only for input !!
 *** WARNING: Zmatrix form will be used only for input !!
 *** WARNING: Zmatrix form will be used only for input !!
 *** WARNING: Zmatrix form will be used only for input !!
 *** WARNING: Zmatrix form will be used only for input !!
 *** WARNING: Zmatrix form will be used only for input !!
 *** WARNING: Zmatrix form will be used only for input !!
 *** WARNING: Zmatrix form will be used only for input !!
 *** WARNING: Zmatrix form will be used only for input !!
 *** WARNING: Zmatrix form will be used only for input !!
 *** WARNING: Zmatrix form will be used only for input !!
 *** WARNING: Zmatrix form will be used only for input !!
 *** WARNING: Zmatrix form will be used only for input !!
 *** WARNING: Zmatrix form will be used only for input !!
 *** WARNING: Zmatrix form will be used only for input !!
 *** WARNING: Zmatrix form will be used only for input !!
 *** WARNING: Zmatrix form will be used only for input !!
 *** WARNING: Zmatrix form will be used only for input !!
 *** WARNING: Zmatrix form will be used only for input !!

initatomlists: Number of atoms, orbitals, and projectors:    119  1491  1855

coxmol: Writing XMOL coordinates into file C112.xyz                                                            

siesta: ******************** Simulation parameters ****************************
siesta:
siesta: The following are some of the parameters of the simulation.
siesta: A complete list of the parameters used, including default values,
siesta: can be found in file out.fdf
siesta:
redata: Spin configuration                          = none
redata: Number of spin components                   = 1
redata: Time-Reversal Symmetry                      = T
redata: Spin-spiral                                 = F
redata: Long output                                 =   F
redata: Number of Atomic Species                    =        2
redata: Charge density info will appear in .RHO file
redata: Write Mulliken Pop.                         = Atomic and Orbital charges
redata: Matel table size (NRTAB)                    =     1024
redata: Mesh Cutoff                                 =   200.0000 Ry
redata: Net charge of the system                    =     0.0000 |e|
redata: Min. number of SCF Iter                     =        0
redata: Max. number of SCF Iter                     =      150
redata: SCF convergence failure will abort job
redata: SCF mix quantity                            = Hamiltonian
redata: Mix DM or H after convergence               =   F
redata: Recompute H after scf cycle                 =   F
redata: Mix DM in first SCF step                    =   T
redata: Write Pulay info on disk                    =   F
redata: New DM Occupancy tolerance                  = 0.000000000001
redata: No kicks to SCF
redata: DM Mixing Weight for Kicks                  =     0.5000
redata: Require Harris convergence for SCF          =   F
redata: Harris energy tolerance for SCF             =     0.000100 eV
redata: Require DM convergence for SCF              =   T
redata: DM tolerance for SCF                        =     0.000100
redata: Require EDM convergence for SCF             =   F
redata: EDM tolerance for SCF                       =     0.001000 eV
redata: Require H convergence for SCF               =   T
redata: Hamiltonian tolerance for SCF               =     0.001000 eV
redata: Require (free) Energy convergence for SCF   =   F
redata: (free) Energy tolerance for SCF             =     0.000100 eV
redata: Using Saved Data (generic)                  =   F
redata: Use continuation files for DM               =   T
redata: Neglect nonoverlap interactions             =   F
redata: Method of Calculation                       = Diagonalization
redata: Electronic Temperature                      =   299.9869 K
redata: Fix the spin of the system                  =   F
redata: Dynamics option                             = Nose thermostat MD run
redata: Initial MD time step                        =        1
redata:   Final MD time step                        =       25
redata: Length of MD time step                      =     1.0000 fs
redata: Initial Temperature of MD run               =    30.0000 K
redata: Perform a MD quench                         =   F
redata: Nose mass                                   =   136.0580 eV/fs**2
redata: Target Temperature                          =    30.0000 Kelvin
mix.SCF: Pulay mixing                            = Pulay
mix.SCF:    Variant                              = stable
mix.SCF:    History steps                        = 4
mix.SCF:    Linear mixing weight                 =     0.300000
mix.SCF:    Mixing weight                        =     0.300000
mix.SCF:    SVD condition                        = 0.1000E-07
redata: ***********************************************************************

%block SCF.Mixers
  Pulay
%endblock SCF.Mixers

%block SCF.Mixer.Pulay
  # Mixing method
  method pulay
  variant stable

  # Mixing options
  weight 0.3000
  weight.linear 0.3000
  history 4
%endblock SCF.Mixer.Pulay
 
Size of DM history Fstack: 1
Total number of electrons:   455.000000
Total ionic charge:   455.000000
 *** WARNING: Zmatrix form will be used only for input !!

* ProcessorY, Blocksize:    6  24


* Orbital distribution balance (max,min):    48    24

 Kpoints in:            1 . Kpoints trimmed:            1

siesta: k-grid: Number of k-points =     1
siesta: k-grid: Cutoff (effective) =     4.890 Ang
siesta: k-grid: Supercell and displacements
siesta: k-grid:    1   0   0      0.000
siesta: k-grid:    0   1   0      0.000
siesta: k-grid:    0   0   1      0.000
 
diag: Algorithm                                     = D&C
diag: Parallel over k                               =   F
diag: Use parallel 2D distribution                  =   T
diag: Parallel block-size                           = 24
diag: Parallel distribution                         =     6 x     8
diag: Used triangular part                          = Lower
diag: Absolute tolerance                            =  0.100E-15
diag: Orthogonalization factor                      =  0.100E-05
diag: Memory factor                                 =  1.0000
 
 
ts: **************************************************************
ts: Save H and S matrices                           =    F
ts: Save DM and EDM matrices                        =    F
ts: Fix Hartree potential                           =    F
ts: Only save the overlap matrix S                  =    F
ts: **************************************************************
 
************************ Begin: TS CHECKS AND WARNINGS ************************
************************ End: TS CHECKS AND WARNINGS **************************


                     ====================================
                        Begin MD step =      1
                     ====================================

outcoor: Atomic coordinates (Ang):                          
    4.78011200    0.00850300    0.08810300   2       1  C
    4.55379100    1.40646300    0.08889700   2       2  C
    2.97261800    3.72757200    0.08874000   2       3  C
    1.76042000    4.46810500    0.08883000   2       4  C
   -1.04864500    4.65400300    0.08911500   2       5  C
   -2.35491000    4.10318100    0.08952900   2       6  C
   -4.27431800    2.05167000    0.08863000   2       7  C
   -4.72548800    0.70472400    0.08818000   2       8  C
   -4.30649200   -2.07679600    0.08581700   2       9  C
   -3.48885600   -3.23562700    0.08604300   2      10  C
   -1.04384100   -4.61543900    0.08824000   2      11  C
    0.37084800   -4.73606700    0.08911100   2      12  C
    3.00013100   -3.72039700    0.08687400   2      13  C
    3.96311800   -2.67480200    0.08670700   2      14  C
    2.40950200   -4.12450500    1.31235300   2      15  C
    4.32116300   -2.05804400    1.30899000   2      16  C
    4.73663500   -0.70402800    1.30911700   2      17  C
    4.28516100    2.06617700    1.31081500   2      18  C
    3.48911100    3.23706100    1.31218400   2      19  C
    1.07705600    4.68702800    1.31485600   2      20  C
   -0.34341600    4.77766900    1.31381700   2      21  C
   -2.94551400    3.70442200    1.31062300   2      22  C
   -3.90884400    2.66604000    1.31060400   2      23  C
   -4.76203400   -0.00781600    1.31243800   2      24  C
   -4.56138000   -1.40958500    1.31073100   2      25  C
   -2.95575400   -3.70919800    1.30836100   2      26  C
   -1.72445800   -4.40622900    1.30970300   2      27  C
    1.08240800   -4.63921100    1.31195900   2      28  C
    2.98766800   -3.70403900    2.53566500   2      29  C
    3.95688800   -2.66932500    2.53319500   2      30  C
    4.79727300    0.00893300    2.53005600   2      31  C
    4.56394800    1.40686200    2.53164200   2      32  C
    2.97251300    3.72717400    2.53476000   2      33  C
    1.75360500    4.45202900    2.53669600   2      34  C
   -1.05134200    4.65305000    2.53379400   2      35  C
   -2.36460600    4.11954700    2.53245500   2      36  C
   -4.26850400    2.05538700    2.53550800   2      37  C
   -4.69305400    0.70344300    2.53573100   2      38  C
   -4.31526200   -2.08274600    2.53218200   2      39  C
   -3.49303800   -3.24223000    2.53143000   2      40  C
   -1.04330400   -4.62163700    2.53036100   2      41  C
    0.37062400   -4.73001800    2.53265500   2      42  C
   -1.73008300   -4.42148200    3.75084100   2      43  C
    1.07171700   -4.61799700    3.75577200   2      44  C
    2.38761700   -4.09318600    3.75647100   2      45  C
    4.32590400   -2.05336700    3.75413400   2      46  C
    4.77410400   -0.70402500    3.75326800   2      47  C
    4.30017000    2.06923000    3.75478900   2      48  C
    3.48912900    3.23209600    3.75577500   2      49  C
    1.06736000    4.65466300    3.75789000   2      50  C
   -0.34550600    4.76391800    3.75586900   2      51  C
   -2.95760900    3.72221800    3.75456300   2      52  C
   -3.91226000    2.67310600    3.75662200   2      53  C
   -4.75626100   -0.00901400    3.75668700   2      54  C
   -4.57618800   -1.41718900    3.75722300   2      55  C
   -2.96471000   -3.72419700    3.75260000   2      56  C
   -1.05584400   -4.64963100    4.97531300   2      57  C
    0.36273500   -4.73516600    4.97518800   2      58  C
    2.96999700   -3.68262100    4.97725600   2      59  C
    3.95206300   -2.66142300    4.97791500   2      60  C
    4.83433400    0.01391500    4.97867600   2      61  C
    4.58466500    1.41413400    4.97855700   2      62  C
    2.96615500    3.71396000    4.97940200   2      63  C
    1.74439100    4.42977000    4.97948500   2      64  C
   -1.05647200    4.66909600    4.97714800   2      65  C
   -2.38069400    4.14582600    4.97695600   2      66  C
   -4.26260700    2.05089100    4.97900800   2      67  C
   -4.68969300    0.70118300    4.97991300   2      68  C
   -4.29864200   -2.07904400    4.98048900   2      69  C
   -3.49052500   -3.24315800    4.97856400   2      70  C
   -4.56416700   -1.41447600    6.19982900   2      71  C
   -2.97239600   -3.73218700    6.20060000   2      72  C
   -1.74657400   -4.45346400    6.20045300   2      73  C
    1.06794900   -4.61854600    6.19973200   2      74  C
    2.38063800   -4.08281100    6.19951700   2      75  C
    4.31665700   -2.04862000    6.20181700   2      76  C
    4.75624800   -0.69915800    6.20336800   2      77  C
    4.30489800    2.07179200    6.20160700   2      78  C
    3.49076500    3.23123400    6.20087000   2      79  C
    1.06460200    4.64318800    6.20044700   2      80  C
   -0.34713500    4.76720300    6.20079600   2      81  C
   -2.96199100    3.72666500    6.20362200   2      82  C
   -3.90743300    2.66579200    6.20312200   2      83  C
   -4.76696400   -0.01087600    6.19932900   2      84  C
   -4.30208100   -2.07833600    7.42149800   2      85  C
   -3.49360900   -3.24230600    7.42306200   2      86  C
   -1.05536300   -4.64162700    7.42553900   2      87  C
    0.36257700   -4.72623200    7.42438100   2      88  C
    2.97740600   -3.69195300    7.42037100   2      89  C
    3.95089900   -2.66367400    7.42207500   2      90  C
    4.78967800    0.01364600    7.42630800   2      91  C
    4.56833500    1.41203600    7.42529600   2      92  C
    2.96995200    3.71886900    7.42343400   2      93  C
    1.74602800    4.43034000    7.42253800   2      94  C
   -1.04989700    4.65184900    7.42572400   2      95  C
   -2.36334700    4.11883500    7.42731000   2      96  C
   -4.26954800    2.04735600    7.42320600   2      97  C
   -4.71424900    0.70112400    7.42101400   2      98  C
   -3.90989800    2.66323200    8.64629700   2      99  C
   -4.80666800   -0.01003200    8.64431100   2     100  C
   -4.58764600   -1.41839800    8.64446300   2     101  C
   -2.96716300   -3.72236800    8.64681300   2     102  C
   -1.73169900   -4.41701700    8.64889200   2     103  C
    1.07355700   -4.61716200    8.64431800   2     104  C
    2.39799400   -4.10827200    8.64280800   2     105  C
    4.31688000   -2.05483700    8.64489900   2     106  C
    4.73165200   -0.70108200    8.64649000   2     107  C
    4.29455800    2.07005400    8.64759100   2     108  C
    3.49215800    3.23717300    8.64764800   2     109  C
    1.07276100    4.66770600    8.64459100   2     110  C
   -0.34274500    4.76652400    8.64564400   2     111  C
   -2.94021400    3.69563500    8.64787800   2     112  C
   -1.03475300    2.21803000    5.64101000   1     113  Li
   -2.24060300   -0.91501000    3.19842500   1     114  Li
    0.32735200    2.49216000    0.37086700   1     115  Li
   -2.45244100   -0.17253500   -0.71368100   1     116  Li
    2.49205000   -0.26945500    4.73023500   1     117  Li
   -0.33000900   -2.45626200    6.09734400   1     118  Li
    0.95763200   -2.27886600    0.39855700   1     119  Li

outcell: Unit cell vectors (Ang):
       97.806123    0.000000    0.000000
        0.000000   97.806123    0.000000
        0.000000    0.000000    9.780612

outcell: Cell vector modules (Ang)   :   97.806123   97.806123    9.780612
outcell: Cell angles (23,13,12) (deg):     90.0000     90.0000     90.0000
outcell: Cell volume (Ang**3)        :  93561.7055
Gamma-point calculation with interaction between periodic images
Some features might not work optimally:
e.g. DM initialization from atomic data
<dSpData1D:S at geom step 1
  <sparsity:sparsity for geom step 1
    nrows_g=1491 nrows=48 sparsity=.0141 nnzs=31339, refcount: 7>
  <dData1D:(new from dSpData1D) n=31339, refcount: 1>
refcount: 1>
new_DM -- step:     1
Initializing Density Matrix...
 
Attempting to read DM from file... Failed...
DM filled with atomic data:
<dSpData2D:DM initialized from atoms
  <sparsity:sparsity for geom step 1
    nrows_g=1491 nrows=48 sparsity=.0141 nnzs=31339, refcount: 8>
  <dData2D:DM n=31339 m=1, refcount: 1>
refcount: 1>
No. of atoms with KB's overlaping orbs in proc 0. Max # of overlaps:      51     335
New grid distribution:   1
           1       1:  432    1:   72    1:    6
           2       1:  432    1:   72    7:   12
           3       1:  432    1:   72   13:   18
           4       1:  432    1:   72   19:   24
           5       1:  432    1:   72   25:   30
           6       1:  432    1:   72   31:   35
           7       1:  432    1:   72   36:   40
           8       1:  432    1:   72   41:   45
           9       1:  432   73:  144    1:    6
          10       1:  432   73:  144    7:   12
          11       1:  432   73:  144   13:   18
          12       1:  432   73:  144   19:   24
          13       1:  432   73:  144   25:   30
          14       1:  432   73:  144   31:   35
          15       1:  432   73:  144   36:   40
          16       1:  432   73:  144   41:   45
          17       1:  432  145:  216    1:    6
          18       1:  432  145:  216    7:   12
          19       1:  432  145:  216   13:   18
          20       1:  432  145:  216   19:   24
          21       1:  432  145:  216   25:   30
          22       1:  432  145:  216   31:   35
          23       1:  432  145:  216   36:   40
          24       1:  432  145:  216   41:   45
          25       1:  432  217:  288    1:    6
          26       1:  432  217:  288    7:   12
          27       1:  432  217:  288   13:   18
          28       1:  432  217:  288   19:   24
          29       1:  432  217:  288   25:   30
          30       1:  432  217:  288   31:   35
          31       1:  432  217:  288   36:   40
          32       1:  432  217:  288   41:   45
          33       1:  432  289:  360    1:    6
          34       1:  432  289:  360    7:   12
          35       1:  432  289:  360   13:   18
          36       1:  432  289:  360   19:   24
          37       1:  432  289:  360   25:   30
          38       1:  432  289:  360   31:   35
          39       1:  432  289:  360   36:   40
          40       1:  432  289:  360   41:   45
          41       1:  432  361:  432    1:    6
          42       1:  432  361:  432    7:   12
          43       1:  432  361:  432   13:   18
          44       1:  432  361:  432   19:   24
          45       1:  432  361:  432   25:   30
          46       1:  432  361:  432   31:   35
          47       1:  432  361:  432   36:   40
          48       1:  432  361:  432   41:   45

InitMesh: MESH =   864 x   864 x    90 =    67184640
InitMesh: (bp) =   432 x   432 x    45 =     8398080
InitMesh: Mesh cutoff (required, used) =   200.000   215.674 Ry
ExtMesh (bp) on 0 =   528 x   168 x   106 =     9402624
New grid distribution:   2
           1      23:  401    5:   13    1:   45
           2      18:  401    1:    4    1:   45
           3       1:   11    7:   13    1:   45
           4     424:  432   14:   18    1:   45
           5      16:  402  413:  419    1:   45
           6       1:    9  381:  410    1:   45
           7     423:  432    7:   13    1:   45
           8       1:    9   14:   18    1:   45
           9      16:  401   18:  380    1:   45
          10     429:  432   19:  380    1:   45
          11     402:  423   14:   16    1:   45
          12     412:  416    5:   13    1:   45
          13     402:  418   17:  380    1:   45
          14     422:  432  423:  432    1:   45
          15     402:  416    1:    4    1:   45
          16      18:   22    5:   13    1:   45
          17      10:   15   18:  380    1:   45
          18       1:    4   19:  380    1:   45
          19     417:  421  423:  432    1:   45
          20     417:  422    7:   13    1:   45
          21      17:  402  420:  424    1:   45
          22       1:   11  423:  432    1:   45
          23      12:   16  423:  432    1:   45
          24      12:   17    7:   13    1:   45
          25     419:  423   17:  380    1:   45
          26       1:   17    1:    6    1:   45
          27      17:   22  425:  432    1:   45
          28     412:  416  425:  432    1:   45
          29       5:    9   19:  380    1:   45
          30     417:  432    1:    6    1:   45
          31     417:  432  420:  422    1:   45
          32     418:  423  414:  419    1:   45
          33     424:  428   19:  380    1:   45
          34     403:  417  414:  419    1:   45
          35       1:   16  420:  422    1:   45
          36     424:  427  411:  419    1:   45
          37      10:  401   14:   17    1:   45
          38     402:  411    5:   13    1:   45
          39       5:    9  411:  419    1:   45
          40       1:    4  411:  419    1:   45
          41      10:  402  381:  412    1:   45
          42     403:  423  381:  413    1:   45
          43     403:  411  425:  432    1:   45
          44     428:  432  411:  419    1:   45
          45      23:  402  425:  432    1:   45
          46     424:  432  381:  410    1:   45
          47     403:  416  420:  424    1:   45
          48      10:   15  413:  419    1:   45
New grid distribution:   3
           1     196:  406    6:   16    1:   45
           2     196:  418   17:   22    1:   45
           3       1:   18  417:  422    1:   45
           4      10:   18    7:   16    1:   45
           5     200:  406  423:  432    1:   45
           6     196:  415    1:    5    1:   45
           7       1:   18    1:    6    1:   45
           8     416:  424    7:   16    1:   45
           9     196:  404   23:  200    1:   45
          10      15:   24   23:  200    1:   45
          11     416:  432  417:  422    1:   45
          12       1:    9  423:  432    1:   45
          13      25:  195   23:  200    1:   45
          14     419:  426   24:  200    1:   45
          15     416:  432    1:    6    1:   45
          16     416:  424  423:  432    1:   45
          17     405:  418   23:  200    1:   45
          18       8:   14   24:  200    1:   45
          19     407:  415    6:   16    1:   45
          20      19:   27  423:  432    1:   45
          21      27:  195    6:   16    1:   45
          22       1:    7   24:  200    1:   45
          23       1:   14   17:   23    1:   45
          24      19:   26    6:   16    1:   45
          25     200:  417  201:  369    1:   45
          26      19:  199  417:  422    1:   45
          27     419:  432   17:   23    1:   45
          28       9:   15  405:  416    1:   45
          29      16:  199  201:  394    1:   45
          30      15:  195   17:   22    1:   45
          31     418:  425  405:  416    1:   45
          32     426:  432  405:  416    1:   45
          33     418:  432  201:  404    1:   45
          34     427:  432   24:  200    1:   45
          35       1:    8  405:  416    1:   45
          36     425:  432  423:  432    1:   45
          37       1:   15  201:  404    1:   45
          38      19:  195    1:    5    1:   45
          39       1:    9    7:   16    1:   45
          40     425:  432    7:   16    1:   45
          41     200:  410  370:  416    1:   45
          42      28:  199  423:  432    1:   45
          43     411:  417  370:  416    1:   45
          44     407:  415  423:  432    1:   45
          45      22:  199  395:  416    1:   45
          46     200:  415  417:  422    1:   45
          47      16:   21  395:  416    1:   45
          48      10:   18  423:  432    1:   45
Setting up quadratic distribution...
ExtMesh (bp) on 0 =   475 x   105 x   145 =     7231875
PhiOnMesh: Number of (b)points on node 0 =               153495
PhiOnMesh: nlist on node 0 =               390536

stepf: Fermi-Dirac step function

siesta: Program's energy decomposition (eV):
siesta: Ebs     =     -6317.344212
siesta: Eions   =     35475.357000
siesta: Ena     =     11786.631050
siesta: Ekin    =     13582.238574
siesta: Enl     =      -652.659834
siesta: Eso     =         0.000000
siesta: Eldau   =         0.000000
siesta: DEna    =     -1327.920805
siesta: DUscf   =       109.172093
siesta: DUext   =         0.000000
siesta: Exc     =     -5426.221806
siesta: eta*DQ  =         0.000000
siesta: Emadel  =         0.000000
siesta: Emeta   =         0.000000
siesta: Emolmec =         0.000000
siesta: Ekinion =         0.000000
siesta: Eharris =    -17062.991686
siesta: Etot    =    -17404.117729
siesta: FreeEng =    -17404.243983

        iscf     Eharris(eV)        E_KS(eV)     FreeEng(eV)     dDmax    Ef(eV) dHmax(eV)
   scf:    1   -17062.991686   -17404.117729   -17404.243983  1.673736 -5.945551  6.143272
timer: Routine,Calls,Time,% = IterSCF        1      24.287  55.39
   scf:    2   -17435.352626   -17424.475393   -17424.541198  0.110453 -5.313780  6.849630
   scf:    3   -17409.197997   -17423.646154   -17423.703876  0.072821 -5.251041  8.417873
   scf:    4   -17427.069376   -17430.480419   -17430.531451  0.172040 -4.702461  2.698444
   scf:    5   -17426.995389   -17431.276683   -17431.340958  0.180033 -4.392236  3.242740
   scf:    6   -17431.347228   -17432.288365   -17432.355351  0.035493 -4.478027  1.701499
   scf:    7   -17431.250723   -17432.540403   -17432.576801  0.047554 -4.588698  1.573865
   scf:    8   -17432.930731   -17432.934645   -17432.974591  0.014940 -4.561338  0.294104
   scf:    9   -17432.374050   -17432.780565   -17432.846858  0.041041 -4.502085  0.865669
   scf:   10   -17432.837003   -17432.811654   -17432.876533  0.004337 -4.496777  0.822643
   scf:   11   -17432.501535   -17432.670541   -17432.738177  0.010309 -4.485977  1.101637
   scf:   12   -17432.537160   -17432.605529   -17432.674037  0.004695 -4.479278  1.205494
   scf:   13   -17433.047954   -17432.872746   -17432.937565  0.017760 -4.538650  0.577647
   scf:   14   -17432.687971   -17432.897495   -17432.941648  0.028789 -4.618664  0.664359
   scf:   15   -17432.953149   -17432.964637   -17433.018679  0.010496 -4.583349  0.092813
   scf:   16   -17432.964092   -17432.967970   -17433.017732  0.006488 -4.603443  0.123227
   scf:   17   -17432.950263   -17432.963295   -17433.018332  0.007979 -4.585270  0.108845
   scf:   18   -17432.970602   -17432.967821   -17433.020457  0.003523 -4.593489  0.020964
   scf:   19   -17432.965043   -17432.966646   -17433.020095  0.001123 -4.592242  0.044781
   scf:   20   -17432.967759   -17432.967253   -17433.020369  0.000499 -4.593506  0.022730
   scf:   21   -17432.968021   -17432.967658   -17433.020463  0.000411 -4.594578  0.011915
   scf:   22   -17432.968631   -17432.968190   -17433.020470  0.000713 -4.596803  0.009834
   scf:   23   -17432.967369   -17432.967805   -17433.020482  0.000521 -4.595756  0.006628
   scf:   24   -17432.967697   -17432.967753   -17433.020480  0.000096 -4.595788  0.007264
   scf:   25   -17432.968101   -17432.967931   -17433.020491  0.000237 -4.596237  0.002295
   scf:   26   -17432.967792   -17432.967863   -17433.020489  0.000096 -4.596130  0.003445
   scf:   27   -17432.968080   -17432.967973   -17433.020491  0.000147 -4.596567  0.001334
   scf:   28   -17432.967801   -17432.967889   -17433.020490  0.000131 -4.596295  0.002906
   scf:   29   -17432.968028   -17432.967959   -17433.020491  0.000105 -4.596566  0.000962
   scf:   30   -17432.967892   -17432.967926   -17433.020491  0.000047 -4.596479  0.000941

SCF Convergence by DM+H criterion
max |DM_out - DM_in|         :     0.0000466883
max |H_out - H_in|      (eV) :     0.0009405842
SCF cycle converged after 30 iterations

Using DM_out to compute the final energy and forces
No. of atoms with KB's overlaping orbs in proc 0. Max # of overlaps:      51     335

siesta: E_KS(eV) =           -17432.9679

siesta: E_KS - E_eggbox =    -17432.9679

siesta: Atomic forces (eV/Ang):
     1   -0.021182    0.227256    0.009452
     2    0.073271   -0.179707   -0.013080
     3   -0.131088    0.105110    0.007928
     4    0.188983   -0.077993   -0.001162
     5   -0.254593   -0.030633   -0.001595
     6    0.239629    0.085070   -0.017840
     7   -0.042407   -0.305833   -0.022650
     8    0.030996    0.291884    0.032700
     9    0.101737   -0.264396    0.027968
    10   -0.155108    0.277214    0.000709
    11    0.282068   -0.004129    0.031226
    12   -0.289496   -0.044109   -0.039997
    13    0.234390    0.161122   -0.005354
    14   -0.196872   -0.162445   -0.006683
    15   -0.286150   -0.137967   -0.005703
    16    0.087275    0.181850    0.016932
    17   -0.057818   -0.186470   -0.015714
    18   -0.057875    0.150352    0.026454
    19    0.153333   -0.123374   -0.026130
    20   -0.271389    0.037999   -0.030776
    21    0.275512    0.009639    0.003643
    22   -0.213075   -0.219384    0.003556
    23    0.168114    0.251343    0.024121
    24   -0.008601   -0.257843   -0.023348
    25   -0.092960    0.216509   -0.061431
    26    0.219293   -0.200200    0.005840
    27   -0.259732    0.120577   -0.015852
    28    0.264762    0.104756    0.021015
    29    0.211904    0.194458    0.021792
    30   -0.170946   -0.193374   -0.005123
    31    0.001530    0.256364   -0.024354
    32    0.038248   -0.173992   -0.032417
    33   -0.214161    0.107941    0.037737
    34    0.214749   -0.124544    0.047819
    35   -0.268072   -0.104432   -0.021606
    36    0.261913    0.158245   -0.030847
    37   -0.082921   -0.289296   -0.032558
    38    0.044808    0.296328   -0.011128
    39    0.207806   -0.312437   -0.029940
    40   -0.204578    0.250010    0.000388
    41    0.312584   -0.046602    0.023656
    42   -0.353890   -0.000700   -0.019321
    43   -0.283546    0.144454   -0.000617
    44    0.298601    0.101189    0.005157
    45   -0.273647   -0.156151    0.005524
    46    0.086377    0.206254    0.007825
    47   -0.088801   -0.223605    0.021065
    48   -0.085860    0.189103    0.023107
    49    0.134787   -0.150884    0.006816
    50   -0.223138    0.021282   -0.013331
    51    0.258859    0.021517    0.021376
    52   -0.215723   -0.230693   -0.021781
    53    0.203785    0.236048    0.000435
    54    0.019031   -0.286560    0.034727
    55   -0.068196    0.286545    0.052341
    56    0.255451   -0.178387    0.028480
    57    0.284763   -0.081401   -0.017358
    58   -0.290036    0.032512    0.032192
    59    0.198271    0.175032    0.025410
    60   -0.106839   -0.227282   -0.015002
    61    0.021359    0.159572   -0.006619
    62    0.017702   -0.140455   -0.019053
    63   -0.160983    0.159419   -0.022171
    64    0.247652   -0.095037   -0.010597
    65   -0.261472   -0.113252   -0.021584
    66    0.223787    0.168546    0.045179
    67   -0.150388   -0.216438    0.001748
    68    0.058779    0.225968   -0.028818
    69    0.150805   -0.213422   -0.028215
    70   -0.241104    0.158963   -0.020160
    71   -0.050512    0.334501   -0.000721
    72    0.297845   -0.119716    0.017887
    73   -0.286114    0.155608    0.007932
    74    0.306242    0.054918   -0.013038
    75   -0.259412   -0.093209   -0.026887
    76    0.085105    0.271961   -0.024618
    77   -0.044085   -0.248695    0.005251
    78   -0.111305    0.195792   -0.012870
    79    0.138085   -0.166549    0.016332
    80   -0.216360    0.006390    0.024795
    81    0.266639    0.008224   -0.005639
    82   -0.214392   -0.218575   -0.034478
    83    0.183625    0.231458   -0.015561
    84    0.052368   -0.340470   -0.033401
    85    0.142765   -0.240876    0.048485
    86   -0.202291    0.226413   -0.020805
    87    0.308603   -0.056001   -0.008294
    88   -0.335590   -0.013980   -0.021494
    89    0.253332    0.168643   -0.019750
    90   -0.178471   -0.216625   -0.015532
    91    0.012236    0.189677    0.033807
    92    0.072102   -0.205982    0.028403
    93   -0.182121    0.121228   -0.015804
    94    0.257538   -0.059971   -0.056080
    95   -0.317910   -0.132232   -0.014663
    96    0.251165    0.135523    0.031567
    97   -0.092795   -0.267136   -0.022957
    98    0.046180    0.301383    0.009346
    99    0.171830    0.238812    0.043886
   100    0.034789   -0.343362    0.000030
   101   -0.046212    0.300426   -0.035865
   102    0.308850   -0.173476    0.005188
   103   -0.327764    0.139955   -0.002891
   104    0.281475    0.050191    0.028718
   105   -0.286756   -0.074336    0.001373
   106    0.080489    0.224512    0.043301
   107   -0.037959   -0.178257   -0.023670
   108   -0.112869    0.171128    0.003981
   109    0.133560   -0.144826   -0.014458
   110   -0.260497    0.005419    0.006122
   111    0.302925    0.004323    0.027367
   112   -0.242637   -0.154758    0.010385
   113   -0.005898    0.085180    0.001121
   114   -0.119129   -0.037384    0.036242
   115   -0.013096    0.050691   -0.025904
   116   -0.080896   -0.016243    0.090341
   117    0.024668   -0.040660    0.036985
   118    0.011117   -0.093258   -0.061103
   119    0.029100   -0.083177   -0.037012
----------------------------------------
   Tot    0.017828   -0.030395   -0.070248
----------------------------------------
   Max    0.353890
   Res    0.008235    sqrt( Sum f_i^2 / 3N )
----------------------------------------
   Max    0.353890    constrained

Stress-tensor-Voigt (kbar):        0.06        0.06       -0.67       -0.00        0.00       -0.00
(Free)E + p*V (eV/cell)   -17422.4076
Target enthalpy (eV/cell)   -17433.0205

siesta: Stress tensor (static) (eV/Ang**3):
         0.000039   -0.000002   -0.000001
        -0.000002    0.000044    0.000002
        -0.000001    0.000002   -0.000413

siesta: Pressure (static):          0.17655477  kBar

siesta: Stress tensor (total) (eV/Ang**3):
         0.000036   -0.000003   -0.000002
        -0.000003    0.000040    0.000002
        -0.000002    0.000002   -0.000416

siesta: Pressure (total):          0.18174078  kBar
 
mulliken: Atomic and Orbital Populations:

Species: Li                  
Atom  Qatom  Qorb
               2s      2s      2Ppy    2Ppz    2Ppx    
 113  0.255   0.140   0.039   0.082   0.003  -0.008
 114  0.319   0.135   0.050  -0.008   0.075   0.068
 115  0.205   0.117   0.033   0.069  -0.005  -0.009
 116  0.383   0.208   0.058  -0.021   0.016   0.122
 117  0.242   0.135   0.037  -0.023  -0.008   0.100
 118  0.337   0.150   0.059   0.113   0.028  -0.013
 119  0.241   0.133   0.037   0.053  -0.003   0.020

Species: C                   
Atom  Qatom  Qorb
               2s      2s      2py     2pz     2px     2py     2pz     2px     
               3Pdxy   3Pdyz   3Pdz2   3Pdxz   3Pdx2-y2
   1  4.016   0.764   0.150   0.922   0.915   0.931   0.070   0.073   0.034
              0.028   0.052   0.038   0.027   0.014
   2  4.016   0.765   0.150   0.923   0.916   0.926   0.069   0.073   0.036
              0.023   0.050   0.038   0.028   0.019
   3  4.044   0.765   0.149   0.922   0.926   0.944   0.046   0.071   0.054
              0.018   0.037   0.038   0.044   0.031
   4  4.101   0.773   0.144   0.978   0.927   0.947   0.032   0.067   0.056
              0.027   0.036   0.038   0.049   0.026
   5  4.080   0.768   0.146   0.969   0.923   0.940   0.030   0.069   0.061
              0.031   0.033   0.038   0.051   0.021
   6  4.036   0.764   0.149   0.924   0.921   0.938   0.041   0.072   0.060
              0.020   0.034   0.038   0.047   0.028
   7  4.042   0.766   0.148   0.936   0.925   0.928   0.062   0.071   0.038
              0.023   0.048   0.038   0.033   0.026
   8  4.073   0.764   0.147   0.933   0.922   0.972   0.064   0.069   0.029
              0.031   0.051   0.039   0.033   0.020
   9  4.056   0.761   0.148   0.937   0.920   0.952   0.057   0.070   0.039
              0.024   0.048   0.039   0.035   0.026
  10  4.031   0.763   0.149   0.940   0.921   0.918   0.053   0.072   0.049
              0.016   0.042   0.038   0.038   0.031
  11  4.035   0.763   0.149   0.935   0.920   0.927   0.033   0.072   0.068
              0.029   0.030   0.038   0.051   0.019
  12  4.085   0.768   0.145   0.976   0.924   0.937   0.026   0.069   0.065
              0.033   0.032   0.038   0.052   0.019
  13  4.091   0.770   0.145   0.962   0.925   0.955   0.044   0.068   0.046
              0.020   0.040   0.038   0.045   0.032
  14  4.040   0.765   0.149   0.915   0.924   0.949   0.057   0.071   0.043
              0.019   0.043   0.038   0.038   0.029
  15  4.080   0.769   0.145   0.953   0.930   0.946   0.036   0.068   0.057
              0.022   0.037   0.039   0.048   0.030
  16  4.031   0.763   0.149   0.929   0.917   0.938   0.064   0.072   0.037
              0.020   0.048   0.038   0.032   0.025
  17  4.016   0.762   0.150   0.917   0.918   0.933   0.070   0.073   0.035
              0.027   0.051   0.038   0.028   0.016
  18  4.016   0.763   0.150   0.915   0.916   0.936   0.063   0.073   0.042
              0.020   0.046   0.038   0.033   0.023
  19  4.033   0.765   0.149   0.933   0.916   0.936   0.055   0.072   0.046
              0.015   0.042   0.038   0.038   0.029
  20  4.080   0.769   0.145   0.964   0.930   0.935   0.028   0.068   0.065
              0.030   0.034   0.038   0.051   0.022
  21  4.072   0.768   0.146   0.962   0.928   0.930   0.028   0.068   0.067
              0.033   0.033   0.038   0.052   0.020
  22  4.026   0.763   0.150   0.933   0.915   0.928   0.050   0.073   0.053
              0.016   0.038   0.038   0.041   0.029
  23  4.020   0.760   0.150   0.923   0.915   0.934   0.056   0.073   0.047
              0.017   0.043   0.038   0.036   0.027
  24  4.048   0.765   0.148   0.924   0.932   0.938   0.069   0.069   0.031
              0.031   0.052   0.039   0.032   0.018
  25  4.050   0.763   0.148   0.928   0.931   0.937   0.067   0.069   0.033
              0.027   0.051   0.039   0.034   0.022
  26  4.028   0.760   0.150   0.932   0.916   0.930   0.044   0.073   0.059
              0.016   0.037   0.038   0.044   0.029
  27  4.031   0.763   0.149   0.939   0.917   0.924   0.039   0.072   0.063
              0.024   0.032   0.038   0.048   0.021
  28  4.077   0.769   0.146   0.969   0.929   0.926   0.029   0.068   0.065
              0.031   0.034   0.038   0.051   0.021
  29  4.033   0.762   0.149   0.937   0.920   0.927   0.049   0.071   0.053
              0.017   0.038   0.038   0.042   0.028
  30  4.030   0.763   0.150   0.923   0.921   0.937   0.056   0.071   0.046
              0.017   0.044   0.038   0.037   0.027
  31  4.030   0.763   0.150   0.923   0.919   0.938   0.070   0.072   0.032
              0.029   0.052   0.038   0.029   0.016
  32  4.025   0.765   0.149   0.925   0.921   0.929   0.068   0.072   0.035
              0.024   0.050   0.038   0.030   0.020
  33  4.024   0.764   0.149   0.922   0.921   0.932   0.046   0.072   0.057
              0.016   0.036   0.038   0.043   0.028
  34  4.029   0.762   0.150   0.939   0.917   0.924   0.039   0.072   0.063
              0.023   0.032   0.038   0.048   0.022
  35  4.030   0.762   0.150   0.938   0.919   0.923   0.036   0.072   0.067
              0.027   0.030   0.038   0.050   0.018
  36  4.023   0.762   0.150   0.925   0.920   0.929   0.041   0.072   0.062
              0.018   0.033   0.038   0.046   0.025
  37  4.024   0.762   0.150   0.931   0.919   0.926   0.064   0.072   0.039
              0.021   0.048   0.038   0.031   0.024
  38  4.047   0.761   0.149   0.929   0.917   0.953   0.066   0.071   0.032
              0.031   0.052   0.039   0.030   0.017
  39  4.092   0.767   0.145   0.940   0.927   0.977   0.056   0.068   0.034
              0.025   0.048   0.039   0.037   0.028
  40  4.058   0.765   0.147   0.949   0.927   0.930   0.050   0.069   0.047
              0.018   0.043   0.038   0.040   0.033
  41  4.028   0.763   0.149   0.935   0.919   0.926   0.033   0.072   0.068
              0.026   0.029   0.038   0.051   0.018
  42  4.030   0.763   0.149   0.939   0.918   0.922   0.032   0.072   0.070
              0.029   0.029   0.038   0.052   0.016
  43  4.034   0.762   0.150   0.942   0.921   0.919   0.038   0.072   0.064
              0.025   0.033   0.039   0.048   0.022
  44  4.025   0.761   0.150   0.938   0.918   0.920   0.036   0.072   0.068
              0.027   0.030   0.038   0.050   0.018
  45  4.024   0.763   0.150   0.927   0.918   0.930   0.040   0.072   0.062
              0.018   0.033   0.038   0.046   0.026
  46  4.055   0.765   0.147   0.937   0.926   0.940   0.061   0.069   0.037
              0.023   0.048   0.038   0.035   0.027
  47  4.079   0.768   0.146   0.932   0.927   0.970   0.064   0.068   0.028
              0.032   0.051   0.039   0.033   0.020
  48  4.042   0.765   0.148   0.933   0.918   0.941   0.058   0.071   0.041
              0.022   0.047   0.038   0.034   0.024
  49  4.020   0.763   0.150   0.935   0.917   0.919   0.054   0.073   0.049
              0.015   0.041   0.038   0.037   0.029
  50  4.021   0.763   0.150   0.928   0.921   0.924   0.034   0.072   0.069
              0.026   0.029   0.038   0.051   0.018
  51  4.033   0.762   0.150   0.941   0.919   0.924   0.032   0.072   0.070
              0.029   0.029   0.038   0.052   0.016
[...]
  73  4.107   0.774   0.144   0.980   0.930   0.949   0.031   0.067   0.056
              0.027   0.037   0.038   0.049   0.026
  74  4.092   0.769   0.145   0.976   0.925   0.941   0.030   0.068   0.062
              0.031   0.034   0.038   0.052   0.021
  75  4.031   0.764   0.149   0.923   0.919   0.935   0.040   0.071   0.062
              0.021   0.033   0.038   0.048   0.027
  76  4.038   0.767   0.148   0.933   0.924   0.932   0.063   0.069   0.037
              0.022   0.049   0.038   0.032   0.024
  77  4.048   0.765   0.148   0.922   0.922   0.950   0.068   0.071   0.032
              0.030   0.051   0.039   0.032   0.019
  78  4.037   0.765   0.149   0.929   0.919   0.940   0.058   0.072   0.041
              0.022   0.047   0.038   0.033   0.023
  79  4.018   0.768   0.149   0.935   0.918   0.921   0.053   0.070   0.048
              0.015   0.040   0.037   0.037   0.028
  80  4.033   0.762   0.150   0.931   0.921   0.925   0.034   0.073   0.070
              0.029   0.029   0.038   0.051   0.019
  81  4.070   0.769   0.146   0.967   0.922   0.935   0.027   0.067   0.066
              0.032   0.031   0.038   0.053   0.018
  82  4.087   0.768   0.146   0.961   0.925   0.951   0.045   0.068   0.047
              0.020   0.041   0.038   0.044   0.033
  83  4.045   0.762   0.149   0.918   0.925   0.951   0.058   0.070   0.042
              0.019   0.045   0.038   0.038   0.030
  84  4.022   0.763   0.150   0.920   0.918   0.929   0.072   0.073   0.033
              0.030   0.052   0.038   0.029   0.015
  85  4.036   0.764   0.149   0.928   0.919   0.943   0.058   0.070   0.040
              0.022   0.046   0.038   0.034   0.024
  86  4.036   0.765   0.148   0.937   0.920   0.929   0.053   0.071   0.047
              0.016   0.041   0.038   0.039   0.031
  87  4.059   0.765   0.147   0.949   0.928   0.933   0.030   0.068   0.066
              0.030   0.032   0.038   0.052   0.020
  88  4.058   0.764   0.147   0.954   0.926   0.923   0.029   0.070   0.069
              0.032   0.032   0.039   0.052   0.019
  89  4.028   0.759   0.151   0.933   0.914   0.928   0.051   0.073   0.055
              0.016   0.038   0.038   0.044   0.030
  90  4.020   0.760   0.151   0.918   0.920   0.934   0.057   0.072   0.048
              0.016   0.042   0.038   0.037   0.027
  91  4.020   0.762   0.150   0.919   0.915   0.934   0.071   0.074   0.033
              0.028   0.052   0.038   0.028   0.015
  92  4.015   0.764   0.150   0.925   0.918   0.925   0.068   0.072   0.035
              0.023   0.050   0.038   0.029   0.019
  93  4.019   0.766   0.149   0.922   0.921   0.931   0.045   0.070   0.058
              0.015   0.035   0.037   0.044   0.027
  94  4.024   0.759   0.151   0.938   0.914   0.922   0.040   0.074   0.065
              0.023   0.031   0.038   0.049   0.021
  95  4.042   0.768   0.147   0.948   0.926   0.920   0.033   0.067   0.067
              0.028   0.031   0.038   0.051   0.019
  96  4.046   0.763   0.149   0.933   0.926   0.936   0.039   0.070   0.061
              0.021   0.035   0.038   0.048   0.027
  97  4.033   0.766   0.148   0.930   0.920   0.935   0.063   0.070   0.037
              0.022   0.048   0.038   0.032   0.024
  98  4.042   0.763   0.148   0.923   0.918   0.951   0.067   0.071   0.033
              0.030   0.051   0.039   0.030   0.017
  99  4.039   0.765   0.149   0.931   0.920   0.938   0.055   0.070   0.046
              0.018   0.045   0.038   0.036   0.027
 100  4.107   0.775   0.143   0.935   0.936   0.983   0.064   0.066   0.024
              0.035   0.051   0.038   0.035   0.020
 101  4.087   0.772   0.145   0.939   0.934   0.965   0.061   0.065   0.029
              0.028   0.050   0.037   0.035   0.027
 102  4.033   0.763   0.149   0.930   0.921   0.932   0.044   0.071   0.057
              0.015   0.038   0.038   0.043   0.031
 103  4.032   0.758   0.150   0.942   0.919   0.925   0.039   0.072   0.063
              0.024   0.033   0.038   0.048   0.022
 104  4.058   0.762   0.148   0.954   0.929   0.922   0.033   0.069   0.067
              0.029   0.034   0.039   0.051   0.021
 105  4.051   0.766   0.148   0.932   0.927   0.935   0.040   0.069   0.062
              0.021   0.036   0.038   0.049   0.028
 106  4.022   0.762   0.150   0.926   0.916   0.931   0.066   0.073   0.038
              0.020   0.048   0.038   0.031   0.023
 107  4.014   0.762   0.150   0.917   0.916   0.931   0.070   0.073   0.035
              0.026   0.051   0.038   0.028   0.016
 108  4.014   0.764   0.150   0.914   0.915   0.934   0.062   0.075   0.042
              0.019   0.045   0.038   0.033   0.023
 109  4.019   0.766   0.149   0.930   0.914   0.930   0.055   0.072   0.046
              0.015   0.041   0.038   0.037   0.027
 110  4.056   0.768   0.147   0.945   0.927   0.928   0.031   0.069   0.068
              0.029   0.032   0.038   0.052   0.020
 111  4.052   0.767   0.147   0.951   0.925   0.924   0.029   0.068   0.068
              0.031   0.032   0.039   0.053   0.017
 112  4.027   0.757   0.151   0.935   0.915   0.927   0.051   0.073   0.053
              0.016   0.039   0.038   0.042   0.030

mulliken: Qtot =      455.000

siesta: Temp_ion =      42.131 K

zmatrix: Z-matrix coordinates: (Ang ; rad )
zmatrix: (Fractional coordinates have been converted to cartesian)
cartesian block    1 (   119 atoms)
      4.78011200      0.00850300      0.08810300
      4.55379100      1.40646300      0.08889700
      2.97261800      3.72757200      0.08874000
      1.76042000      4.46810500      0.08883000
     -1.04864500      4.65400300      0.08911500
     -2.35491000      4.10318100      0.08952900
     -4.27431800      2.05167000      0.08863000
     -4.72548800      0.70472400      0.08818000
     -4.30649200     -2.07679600      0.08581700
     -3.48885600     -3.23562700      0.08604300
     -1.04384100     -4.61543900      0.08824000
      0.37084800     -4.73606700      0.08911100
      3.00013100     -3.72039700      0.08687400
      3.96311800     -2.67480200      0.08670700
      2.40950200     -4.12450500      1.31235300
      4.32116300     -2.05804400      1.30899000
      4.73663500     -0.70402800      1.30911700
      4.28516100      2.06617700      1.31081500
      3.48911100      3.23706100      1.31218400
      1.07705600      4.68702800      1.31485600
     -0.34341600      4.77766900      1.31381700
     -2.94551400      3.70442200      1.31062300
     -3.90884400      2.66604000      1.31060400
     -4.76203400     -0.00781600      1.31243800
     -4.56138000     -1.40958500      1.31073100
     -2.95575400     -3.70919800      1.30836100
     -1.72445800     -4.40622900      1.30970300
      1.08240800     -4.63921100      1.31195900
      2.98766800     -3.70403900      2.53566500
      3.95688800     -2.66932500      2.53319500
      4.79727300      0.00893300      2.53005600
      4.56394800      1.40686200      2.53164200
      2.97251300      3.72717400      2.53476000
      1.75360500      4.45202900      2.53669600
     -1.05134200      4.65305000      2.53379400
     -2.36460600      4.11954700      2.53245500
     -4.26850400      2.05538700      2.53550800
     -4.69305400      0.70344300      2.53573100
     -4.31526200     -2.08274600      2.53218200
     -3.49303800     -3.24223000      2.53143000
     -1.04330400     -4.62163700      2.53036100
      0.37062400     -4.73001800      2.53265500
     -1.73008300     -4.42148200      3.75084100
      1.07171700     -4.61799700      3.75577200
      2.38761700     -4.09318600      3.75647100
      4.32590400     -2.05336700      3.75413400
      4.77410400     -0.70402500      3.75326800
      4.30017000      2.06923000      3.75478900
      3.48912900      3.23209600      3.75577500
      1.06736000      4.65466300      3.75789000
     -0.34550600      4.76391800      3.75586900
     -2.95760900      3.72221800      3.75456300
     -3.91226000      2.67310600      3.75662200
     -4.75626100     -0.00901400      3.75668700
     -4.57618800     -1.41718900      3.75722300
     -2.96471000     -3.72419700      3.75260000
     -1.05584400     -4.64963100      4.97531300
      0.36273500     -4.73516600      4.97518800
      2.96999700     -3.68262100      4.97725600
      3.95206300     -2.66142300      4.97791500
      4.83433400      0.01391500      4.97867600
      4.58466500      1.41413400      4.97855700
      2.96615500      3.71396000      4.97940200
      1.74439100      4.42977000      4.97948500
     -1.05647200      4.66909600      4.97714800
     -2.38069400      4.14582600      4.97695600
     -4.26260700      2.05089100      4.97900800
     -4.68969300      0.70118300      4.97991300
     -4.29864200     -2.07904400      4.98048900
     -3.49052500     -3.24315800      4.97856400
     -4.56416700     -1.41447600      6.19982900
     -2.97239600     -3.73218700      6.20060000
     -1.74657400     -4.45346400      6.20045300
      1.06794900     -4.61854600      6.19973200
      2.38063800     -4.08281100      6.19951700
      4.31665700     -2.04862000      6.20181700
      4.75624800     -0.69915800      6.20336800
      4.30489800      2.07179200      6.20160700
      3.49076500      3.23123400      6.20087000
      1.06460200      4.64318800      6.20044700
     -0.34713500      4.76720300      6.20079600
     -2.96199100      3.72666500      6.20362200
     -3.90743300      2.66579200      6.20312200
     -4.76696400     -0.01087600      6.19932900
     -4.30208100     -2.07833600      7.42149800
     -3.49360900     -3.24230600      7.42306200
     -1.05536300     -4.64162700      7.42553900
      0.36257700     -4.72623200      7.42438100
      2.97740600     -3.69195300      7.42037100
      3.95089900     -2.66367400      7.42207500
      4.78967800      0.01364600      7.42630800
      4.56833500      1.41203600      7.42529600
      2.96995200      3.71886900      7.42343400
      1.74602800      4.43034000      7.42253800
     -1.04989700      4.65184900      7.42572400
     -2.36334700      4.11883500      7.42731000
     -4.26954800      2.04735600      7.42320600
     -4.71424900      0.70112400      7.42101400
     -3.90989800      2.66323200      8.64629700
     -4.80666800     -0.01003200      8.64431100
     -4.58764600     -1.41839800      8.64446300
     -2.96716300     -3.72236800      8.64681300
     -1.73169900     -4.41701700      8.64889200
      1.07355700     -4.61716200      8.64431800
      2.39799400     -4.10827200      8.64280800
      4.31688000     -2.05483700      8.64489900
      4.73165200     -0.70108200      8.64649000
      4.29455800      2.07005400      8.64759100
      3.49215800      3.23717300      8.64764800
      1.07276100      4.66770600      8.64459100
     -0.34274500      4.76652400      8.64564400
     -2.94021400      3.69563500      8.64787800
     -1.03475300      2.21803000      5.64101000
     -2.24060300     -0.91501000      3.19842500
      0.32735200      2.49216000      0.37086700
     -2.45244100     -0.17253500     -0.71368100
      2.49205000     -0.26945500      4.73023500
     -0.33000900     -2.45626200      6.09734400
      0.95763200     -2.27886600      0.39855700


Z-matrix Symbol Section -------
Variables
Constants
------------ End of Z-matrix Information


coxmol: Writing XMOL coordinates into file C112.xyz                                                            
siesta: PDOS info: 
siesta: e1, e2, sigma, nhist:   -24.00 eV   15.00 eV    0.10 eV   1000

siesta: Program's energy decomposition (eV):
siesta: Ebs     =     -6833.856704
siesta: Eions   =     35475.357000
siesta: Ena     =     11787.552159
siesta: Ekin    =     12871.804121
siesta: Enl     =      -501.929950
siesta: Eso     =         0.000000
siesta: Eldau   =         0.000000
siesta: DEna    =      -843.850408
siesta: DUscf   =        50.636553
siesta: DUext   =         0.000000
siesta: Exc     =     -5321.601574
siesta: eta*DQ  =         0.000000
siesta: Emadel  =         0.000000
siesta: Emeta   =         0.000000
siesta: Emolmec =         0.000000
siesta: Ekinion =         0.642580
siesta: Eharris =    -17432.103505
siesta: Etot    =    -17432.103519
siesta: FreeEng =    -17432.151313

siesta: Final energy (eV):
siesta:  Band Struct. =   -6833.856704
siesta:       Kinetic =   12871.804121
siesta:       Hartree =  505583.858855
siesta:       Eldau   =       0.000000
siesta:       Eso     =       0.000000
siesta:    Ext. field =       0.000000
siesta:   Exch.-corr. =   -5321.601574
siesta:  Ion-electron =-1023937.125876
siesta:       Ion-ion =  493370.318374
siesta:       Ekinion =       0.642580
siesta:         Total =  -17432.103519
siesta:         Fermi =      -4.603919

siesta: Atomic forces (eV/Ang):
siesta:      1   -0.009851    0.109611   -0.234632
siesta:      2    0.134287   -0.291216    0.205402
siesta:      3   -0.089227    0.146102   -0.345681
siesta:      4   -0.231633   -0.046014    0.163221
siesta:      5    0.191583   -0.174484   -0.260250
siesta:      6    0.047962   -0.110814    0.426718
siesta:      7   -0.311525   -0.038645   -0.069077
siesta:      8    0.315638    0.127275    0.044586
siesta:      9   -0.055163   -0.237578   -0.106366
siesta:     10    0.030159   -0.271531   -0.038283
siesta:     11    0.059858   -0.186326    0.262083
siesta:     12    0.004693   -0.248794   -0.222120
siesta:     13   -0.288202    0.028501    0.311355
siesta:     14   -0.050325   -0.064948    0.098553
siesta:     15    0.626246    0.127514   -0.041765
siesta:     16    0.012682   -0.233585   -0.381284
siesta:     17   -0.096568   -0.018094    0.503690
siesta:     18   -0.076691    0.160724    0.118183
siesta:     19    0.013382   -0.252387    0.323805
siesta:     20   -0.067173   -0.035475   -0.010471
siesta:     21    0.210540   -0.134470   -0.334195
siesta:     22   -0.164270   -0.045744    0.256285
siesta:     23    0.442893    0.250190    0.206201
siesta:     24    0.067579   -0.281580    0.055971
siesta:     25   -0.020321    0.248064    0.172466
siesta:     26    0.189919    0.105718    0.072293
siesta:     27   -0.171644    0.225874    0.187739
siesta:     28    0.422404    0.033208   -0.011044
siesta:     29   -0.386695   -0.136096   -0.021022
siesta:     30    0.212771    0.164855   -0.296837
siesta:     31   -0.225556    0.931918    0.034918
siesta:     32   -0.195224   -0.124381   -0.095370
siesta:     33   -0.233659    0.139830    0.351655
siesta:     34    0.090475   -0.028191   -0.152879
siesta:     35   -0.332094   -0.012877   -0.274088
siesta:     36   -0.149078   -0.014470    0.143592
siesta:     37   -0.173882   -0.212660   -0.346071
siesta:     38    0.203925    0.532018    0.180850
siesta:     39    0.088461   -0.386431   -0.021803
siesta:     40    0.153908   -0.049230    0.083628
siesta:     41    0.189345    0.217998   -0.176573
siesta:     42   -0.771838   -0.132237   -0.657642
siesta:     43   -0.757436    0.271875   -0.017948
siesta:     44    0.065498   -0.013014    0.289985
siesta:     45    0.419511    0.308073    0.039031
siesta:     46   -0.216763   -0.497155    0.366381
siesta:     47    0.181439   -0.275639   -0.309344
siesta:     48   -0.120130   -0.085480    0.207293
siesta:     49    0.469505   -0.302044   -0.242213
siesta:     50    0.246784   -0.086333   -0.488281
siesta:     51   -0.145066    0.003026    0.337494
siesta:     52   -0.079292    0.073525   -0.378607
siesta:     53    0.122102    0.025857    0.038565
siesta:     54   -0.071409   -0.347360    0.015193
siesta:     55    0.005483    0.462189    0.445589
siesta:     56   -0.078639   -0.046266   -0.364712
siesta:     57    0.649521   -0.160694    0.061308
siesta:     58   -0.541787   -0.251479    0.321094
siesta:     59   -0.290284    0.004795    0.125404
siesta:     60    0.073096    0.358974    0.186071
siesta:     61    0.059626    0.443786    0.522066
siesta:     62   -0.084725    0.260157   -0.779597
siesta:     63    0.467231   -0.327551    0.533741
siesta:     64    0.091291   -0.169641   -0.457769
siesta:     65   -0.061811   -0.074720    0.499509
siesta:     66    0.326721   -0.058369   -0.222323
siesta:     67   -0.059428   -0.228541    0.275361
siesta:     68    0.107291    0.248436   -0.380917
siesta:     69    0.235898   -0.226293   -0.193746
siesta:     70    0.027991    0.172927   -0.198682
siesta:     71    0.034543    0.274277    0.059903
siesta:     72    0.031236   -0.213795    0.302589
siesta:     73   -0.445135    0.320799   -0.030027
siesta:     74    0.088107   -0.039941    0.039921
siesta:     75    0.193520   -0.096520   -0.418996
siesta:     76    0.031542    0.046747    0.295057
siesta:     77    0.086865   -0.575992   -0.453538
siesta:     78   -0.484719    0.402313    0.588345
siesta:     79   -0.098983   -0.095957   -0.266654
siesta:     80   -0.318254    0.062944    0.270039
siesta:     81   -0.514354   -0.015357    0.119308
siesta:     82    0.095807    0.062020   -0.274631
siesta:     83    0.076622   -0.292882    0.059110
siesta:     84   -0.224561   -0.118971    0.343231
siesta:     85    0.208862   -0.054486    0.242533
siesta:     86   -0.454310    0.278126   -0.078324
siesta:     87    0.303796    0.197333    0.031720
siesta:     88   -0.445724   -0.260719   -0.098694
siesta:     89   -0.186849   -0.295482   -0.380498
siesta:     90    0.108699    0.193693   -0.173891
siesta:     91    0.090469    0.486812    0.024339
siesta:     92    0.000033   -0.222655   -0.316502
siesta:     93    0.254395   -0.402092    0.304001
siesta:     94    0.255220   -0.110048   -0.169730
siesta:     95    0.240804    0.039461    0.102372
siesta:     96    0.403457    0.154445   -0.173371
siesta:     97   -0.195227   -0.258984    0.238304
siesta:     98    0.058048    0.419651   -0.090985
siesta:     99   -0.108219   -0.199167   -0.300190
siesta:    100   -0.000030   -0.541538    0.132245
siesta:    101    0.279699    0.220958   -0.394555
siesta:    102    0.173572   -0.036068   -0.066810
siesta:    103   -0.273681    0.295946   -0.133265
siesta:    104    0.033281    0.089942    0.159544
siesta:    105    0.329955    0.038940    0.490717
siesta:    106    0.091573    0.157629    0.109456
siesta:    107   -0.052993   -0.170234   -0.001154
siesta:    108   -0.237393    0.757009   -0.045695
siesta:    109    0.125019   -0.113600   -0.396521
siesta:    110   -0.098079    0.107967    0.431861
siesta:    111   -0.042069    0.139728   -0.462788
siesta:    112    0.056159   -0.024569   -0.025635
siesta:    113   -0.019853    0.040379    0.014525
siesta:    114   -0.020352   -0.009186    0.035392
siesta:    115   -0.009778    0.055293   -0.013098
siesta:    116   -0.078762   -0.021355    0.079165
siesta:    117    0.095691   -0.039358    0.019599
siesta:    118    0.012111    0.043025   -0.023709
siesta:    119   -0.003165    0.043017   -0.043243
siesta: ----------------------------------------
siesta:    Tot    0.096903   -0.016315   -0.003541

siesta: Stress tensor (static) (eV/Ang**3):
siesta:     0.000042   -0.000036    0.000007
siesta:    -0.000036    0.000072    0.000020
siesta:     0.000007    0.000020   -0.000379

siesta: Cell volume =      93561.705545 Ang**3

siesta: Pressure (static):
siesta:                Solid            Molecule  Units
siesta:           0.00000096          0.00000096  Ry/Bohr**3
siesta:           0.00008846          0.00008846  eV/Ang**3
siesta:           0.14172787          0.14172787  kBar
(Free)E+ p_basis*V_orbitals  =      -17365.071389
(Free)Eharris+ p_basis*V_orbitals  =      -17365.071375

siesta: Electric dipole (a.u.)  =   -0.155494   -0.088991    0.000000
siesta: Electric dipole (Debye) =   -0.395227   -0.226193    0.000000

cite: Please see "C112.bib" for an exhaustive BiBTeX file.
cite: This calculation has made use of the following articles.
cite: Articles are encouraged to be cited in a published work.
        Primary SIESTA paper
          DOI: www.doi.org/10.1088/0953-8984/14/11/302                                     
 
>> End of run:  11-JAN-2020  13:17:42
Job completed
