
         
 *******************************************************************************
 *                                                                             *
 *                               CRYSTAL23                                     *
 *                      public : 1.0.1 - October 2022                          *
 *                       HTTP://WWW.CRYSTAL.UNITO.IT                           *
 *                                                                             *
 *                              MAIN AUTHORS                                   *
 *                                                                             *
 *  R. DOVESI(1,11), V.R. SAUNDERS(2), C. ROETTI(1,11), R. ORLANDO(1,11),      *
 *  C.M. ZICOVICH-WILSON(1,3), F. PASCALE(4), B. CIVALLERI(1,11),              *
 *  K. DOLL(5), N.M. HARRISON(6), I.J. BUSH(7), Ph. D'ARCO(8),                 *
 *  M. LLUNELL(9), M. CAUSA'(10), Y. NOEL(8), L. MASCHIO(1,11), A. ERBA(1,11)  *
 *  M. RE'RAT(14), S. CASASSA(1,11), B.G. SEARLE(2), J.K. DESMARAIS(1)         *
 *                                                                             *
 *        CONTRIBUTIONS TO THE CODE HAVE ALSO BEEN GIVEN BY                    *
 *                                                                             *
 *  M. FERRABONE(1,11), M. DE LA PIERRE(1,11), M. FERRERO(1,11),               *
 *  J. BAIMA(1,11), E. ALBANESE(1,11), M.F. PEINTINGER(12), R. BAST(13),       *
 *  B. KIRTMAN(15), V. LACIVITA(1,11), R. DEMICHELIS(1,16)                     *
 *  G. BRANDEBURG(17), S. SALUSTRO(1,11), G. SANSONE(1,11)                     *
 *  M.T. RUGGIERO(18), L.E. DAGA(1), L. DONA'(1), A. COSSARD(1)                *
 *                                                                             *
 * (1) THEORETICAL CHEMISTRY GROUP - UNIVERSITA' DI TORINO - TORINO (ITALY)    *
 * (2) SCIENTIFIC COMPUTING DEPARTMENT - STFC DARESBURY (UK)                   *
 * (3) UNIVERSIDAD AUTONOMA DEL ESTADO DE MORELOS - CUERNAVACA (MEXICO)        *
 * (4) UNIVERSITE' DE LORRAINE - NANCY (FRANCE)                                *
 * (5) UNIVERSITAET STUTTGART- STUTTGART (GERMANY)                             *
 * (6) IMPERIAL COLLEGE - LONDON (UK)                                          *
 * (7) SCIENTIFIC COMPUTING DEPARTMENT - STFC RAL (UK)                         *
 * (8) UPMC - SORBONNE UNIVERSITES - PARIS (FRANCE)                            *
 * (9) UNIVERSIDAD DE BARCELONA - BARCELONA (SPAIN)                            *
 *(10) UNIVERSITA' DI NAPOLI "FEDERICO II" - NAPOLI (ITALY)                    *
 *(11) NIS - NANOSTRUCTURED INTERFACES AND SURFACES - TORINO (ITALY)           *
 *(12) MPI FUER CHEMISCHE ENERGIEKONVERSION - MUELHEIM AN DER RUHR (GERMANY)   *
 *(13) UNIVERSITY OF TROMSO - TROMSO (NORWAY)                                  *
 *(14) UNIVERSITE' DE PAU ET DES PAYS DE L'ADOUR - PAU (FRANCE)                *
 *(15) UNIVERSITY OF CALIFORNIA SANTA BARBARA - SANTA BARBARA (USA)            *
 *(16) CURTIN UNIVERSITY - PERTH (AUSTRALIA)                                   *
 *(17) UNIVERSITY COLLEGE LONDON - LONDON (UK)                                 *
 *(18) UNIVERSITY OF VERMONT - BURLINGTON (USA)                                *
 *                                                                             *
 *******************************************************************************
 EEEEEEEEEE STARTING  DATE 04 08 2023 TIME 11:09:17.6
 TEST27 - CORUNDUM                                                               

 CRYSTAL CALCULATION
 (INPUT ACCORDING TO THE INTERNATIONAL TABLES FOR X-RAY CRYSTALLOGRAPHY)
 CRYSTAL FAMILY                       :  HEXAGONAL   
 CRYSTAL CLASS  (GROTH - 1921)        :  DITRIGONAL SCALENOHEDRAL             

 SPACE GROUP (CENTROSYMMETRIC)        :  R -3 C          

 LATTICE PARAMETERS  (ANGSTROMS AND DEGREES) - CONVENTIONAL CELL
        A           B           C        ALPHA        BETA       GAMMA
     4.76020     4.76020    12.99330    90.00000    90.00000   120.00000


 NUMBER OF IRREDUCIBLE ATOMS IN THE CONVENTIONAL CELL:    2

 INPUT COORDINATES

 ATOM AT. N.              COORDINATES
   1   8     3.062400000000E-01  0.000000000000E+00  2.500000000000E-01
   2  13     0.000000000000E+00  0.000000000000E+00  3.521600000000E-01

 *******************************************************************************

 << INFORMATION >>: FROM NOW ON, ALL COORDINATES REFER TO THE PRIMITIVE CELL

 *******************************************************************************

 LATTICE PARAMETERS  (ANGSTROMS AND DEGREES) - PRIMITIVE CELL
       A          B          C        ALPHA      BETA     GAMMA        VOLUME
    5.12948    5.12948    5.12948    55.29155  55.29155  55.29155     84.992234

 COORDINATES OF THE EQUIVALENT ATOMS (FRACTIONAL UNITS)

 N. ATOM EQUIV AT. N.          X                  Y                  Z

   1   1   1    8 O    -4.43760000000E-01 -5.62400000000E-02  2.50000000000E-01
   2   1   2    8 O     2.50000000000E-01 -4.43760000000E-01 -5.62400000000E-02
   3   1   3    8 O    -5.62400000000E-02  2.50000000000E-01 -4.43760000000E-01
   4   1   4    8 O     4.43760000000E-01  5.62400000000E-02 -2.50000000000E-01
   5   1   5    8 O    -2.50000000000E-01  4.43760000000E-01  5.62400000000E-02
   6   1   6    8 O     5.62400000000E-02 -2.50000000000E-01  4.43760000000E-01

   7   2   1   13 AL    3.52160000000E-01  3.52160000000E-01  3.52160000000E-01
   8   2   2   13 AL    1.47840000000E-01  1.47840000000E-01  1.47840000000E-01
   9   2   3   13 AL   -3.52160000000E-01 -3.52160000000E-01 -3.52160000000E-01
  10   2   4   13 AL   -1.47840000000E-01 -1.47840000000E-01 -1.47840000000E-01

 NUMBER OF SYMMETRY OPERATORS         :   12
 *******************************************************************************
 * GEOMETRY EDITING - INPUT COORDINATES ARE GIVEN IN ANGSTROM         
 *******************************************************************************

 GEOMETRY NOW FULLY CONSISTENT WITH THE GROUP
 INFORMATION **** NEW DEFAULT **** FINALRUN 4 FOR GEOMETRY OPTIMIZATIONS
 INFORMATION **** NEW DEFAULT **** OPTGEOM OPTIMIZES BOTH ATOMIC COORDINATES AND CELL PARAMETERS
 INFORMATION **** NEW DEFAULT **** TOL. ON ATOMIC DISP TO REDEFINE REF. GEOMETRY: 0.8 Angs
 INFORMATION **** NEW DEFAULT **** N POINTS TO REDEFINE REF. GEOMETRY: N OF OPT DEGS OF FREEDOM
 INFORMATION **** NEW DEFAULT **** TOL. ON ENERGY TO REDEFINE REF. GEOMETRY: 10**-3*(5*N. ATOMS)
 INFORMATION **** FULLOPTG **** FULL OPTIMIZATION (ATOMS AND CELL PARAMETERS)

 IMPORTANT INFORMATION:
 THE COORDINATE SYSTEM ADOPTED IN THE OPTIMIZATION IS NOT IN
 GENERAL HOMOGENEOUS UNITS. FOR THIS REASON THE GRADIENT AND 
 HESSIAN MATRIX IN TERMS OF THIS SYSTEM ARE GIVEN WITHOUT
 UNITS. FOR MORE DETAILS SEE THE MANUAL.

 *******************************************************************************
 COMBINED CELL/ATOM OPTIMIZATION CONTROL

 INITIAL TRUST RADIUS         0.50000 MAXIMUM TRUST RADIUS               4.00000
 MAXIMUM GRADIENT COMPONENT   0.00045 MAXIMUM DISPLACEMENT COMPONENT     0.00180
 R.M.S. OF GRADIENT COMPONENT 0.00030 R.M.S. OF DISPLACEMENT COMPONENTS  0.00120
 THRESHOLD ON ENERGY CHANGE 0.100E-06 EXTRAPOLATING POLYNOMIAL ORDER           2
 MAXIMUM ALLOWED NUMBER OF STEPS   -1 SORTING OF ENERGY POINTS:               NO
 ANALYTICAL  GRADIENT                 HESSIAN UPDATING                      BFGS
 STEP SIZE NUMERICAL GRADIENT 0.00100
 INITIAL HESSIAN MATRIX: SCHLEGEL MODEL 2
 *******************************************************************************


 GCALCO - MAX INDICES DIRECT LATTICE VECTOR    14    14    14
 NO.OF VECTORS CREATED 6999 STARS  522 RMAX    98.86931 BOHR

 GEOMETRY FOR WAVE FUNCTION - DIMENSIONALITY OF THE SYSTEM    3
 (NON PERIODIC DIRECTION: LATTICE PARAMETER FORMALLY SET TO 500)
 *******************************************************************************
 LATTICE PARAMETERS (ANGSTROMS AND DEGREES) - BOHR = 0.5291772083 ANGSTROM
 PRIMITIVE CELL - CENTRING CODE 7/0 VOLUME=    84.992234 - DENSITY  3.984 g/cm^3
         A              B              C           ALPHA      BETA       GAMMA 
     5.12948294     5.12948294     5.12948294    55.291548  55.291548  55.291548
 *******************************************************************************
 ATOMS IN THE ASYMMETRIC UNIT    2 - ATOMS IN THE UNIT CELL:   10
     ATOM                 X/A                 Y/B                 Z/C    
 *******************************************************************************
      1 T   8 O    -4.437600000000E-01 -5.624000000000E-02  2.500000000000E-01
      2 F   8 O     2.500000000000E-01 -4.437600000000E-01 -5.624000000000E-02
      3 F   8 O    -5.624000000000E-02  2.500000000000E-01 -4.437600000000E-01
      4 F   8 O     4.437600000000E-01  5.624000000000E-02 -2.500000000000E-01
      5 F   8 O    -2.500000000000E-01  4.437600000000E-01  5.624000000000E-02
      6 F   8 O     5.624000000000E-02 -2.500000000000E-01  4.437600000000E-01
      7 T  13 AL    3.521600000000E-01  3.521600000000E-01  3.521600000000E-01
      8 F  13 AL    1.478400000000E-01  1.478400000000E-01  1.478400000000E-01
      9 F  13 AL   -3.521600000000E-01 -3.521600000000E-01 -3.521600000000E-01
     10 F  13 AL   -1.478400000000E-01 -1.478400000000E-01 -1.478400000000E-01

 TRANSFORMATION MATRIX PRIMITIVE-CRYSTALLOGRAPHIC CELL
  1.0000  0.0000  1.0000 -1.0000  1.0000  1.0000  0.0000 -1.0000  1.0000

 *******************************************************************************
 CRYSTALLOGRAPHIC CELL (VOLUME=        254.97670093)
         A              B              C           ALPHA      BETA       GAMMA 
     4.76020000     4.76020000    12.99330000    90.000000  90.000000 120.000000

 COORDINATES IN THE CRYSTALLOGRAPHIC CELL
     ATOM                 X/A                 Y/B                 Z/C    
 *******************************************************************************
      1 T   8 O    -3.604266666667E-01 -3.333333333333E-01 -8.333333333333E-02
      2 F   8 O     3.333333333333E-01 -2.709333333333E-02 -8.333333333333E-02
      3 F   8 O     2.709333333333E-02  3.604266666667E-01 -8.333333333333E-02
      4 F   8 O     3.604266666667E-01  3.333333333333E-01  8.333333333333E-02
      5 F   8 O    -3.333333333333E-01  2.709333333333E-02  8.333333333333E-02
      6 F   8 O    -2.709333333333E-02 -3.604266666667E-01  8.333333333333E-02
      7 T  13 AL    3.333333333333E-01 -3.333333333333E-01  1.882666666667E-02
      8 F  13 AL   -3.386585068730E-18  5.954188251948E-17  1.478400000000E-01
      9 F  13 AL   -3.333333333333E-01  3.333333333333E-01 -1.882666666667E-02
     10 F  13 AL   -1.362294587029E-17 -9.267482740351E-17 -1.478400000000E-01

 T = ATOM BELONGING TO THE ASYMMETRIC UNIT

 ****   12 SYMMOPS - TRANSLATORS IN FRACTIONAL UNITS
 **** MATRICES AND TRANSLATORS IN THE CRYSTALLOGRAPHIC REFERENCE FRAME
   V INV                    ROTATION MATRICES                   TRANSLATORS
   1   1  1.00  0.00  0.00  0.00  1.00  0.00  0.00  0.00  1.00  0.00  0.00  0.00
   2   3  0.00 -0.00  1.00  1.00 -0.00  0.00  0.00  1.00 -0.00  0.00  0.00  0.00
   3   2  0.00  1.00 -0.00  0.00 -0.00  1.00  1.00 -0.00  0.00  0.00  0.00  0.00
   4   4 -0.00 -1.00  0.00 -1.00 -0.00  0.00 -0.00  0.00 -1.00  0.50  0.50  0.50
   5   5 -1.00 -0.00 -0.00 -0.00 -0.00 -1.00 -0.00 -1.00 -0.00  0.50  0.50  0.50
   6   6 -0.00  0.00 -1.00 -0.00 -1.00  0.00 -1.00 -0.00  0.00  0.50  0.50  0.50
   7   7 -1.00 -0.00 -0.00 -0.00 -1.00 -0.00 -0.00 -0.00 -1.00  0.00  0.00  0.00
   8   9 -0.00  0.00 -1.00 -1.00  0.00 -0.00 -0.00 -1.00  0.00  0.00  0.00  0.00
   9   8 -0.00 -1.00  0.00 -0.00  0.00 -1.00 -1.00  0.00 -0.00  0.00  0.00  0.00
  10  10  0.00  1.00 -0.00  1.00  0.00 -0.00  0.00 -0.00  1.00  0.50  0.50  0.50
  11  11  1.00  0.00  0.00  0.00  0.00  1.00  0.00  1.00  0.00  0.50  0.50  0.50
  12  12  0.00 -0.00  1.00  0.00  1.00 -0.00  1.00  0.00 -0.00  0.50  0.50  0.50

 DIRECT LATTICE VECTORS CARTESIAN COMPONENTS (ANGSTROM)
          X                    Y                    Z
   0.274830275140E+01  -0.140665257220E-16   0.433110000000E+01
  -0.137415137570E+01   0.238010000000E+01   0.433110000000E+01
  -0.137415137570E+01  -0.238010000000E+01   0.433110000000E+01


 CARTESIAN COORDINATES - PRIMITIVE CELL
 *******************************************************************************
 *      ATOM          X(ANGSTROM)         Y(ANGSTROM)         Z(ANGSTROM)
 *******************************************************************************
    1     8 O    -1.485842399515E+00 -7.288818240000E-01 -1.082775000000E+00
    2     8 O     1.374151375698E+00 -9.223363520000E-01 -1.082775000000E+00
    3     8 O     1.116910238168E-01  1.651218176000E+00 -1.082775000000E+00
    4     8 O     1.485842399515E+00  7.288818240000E-01  1.082775000000E+00
    5     8 O    -1.374151375698E+00  9.223363520000E-01  1.082775000000E+00
    6     8 O    -1.116910238168E-01 -1.651218176000E+00  1.082775000000E+00
    7    13 AL   -2.748302751396E+00  4.639000527237E-17  2.446205280000E-01
    8    13 AL   -1.396104159334E-17  2.914916802913E-16  1.920929472000E+00
    9    13 AL   -1.374151375698E+00 -2.380100000000E+00 -2.446205280000E-01
   10    13 AL   -5.615996942615E-17 -4.087267399403E-16 -1.920929472000E+00

 *******************************************************************************
 LOCAL ATOMIC FUNCTIONS BASIS SET
 *******************************************************************************
   ATOM   X(AU)   Y(AU)   Z(AU)  N. TYPE  EXPONENT  S COEF   P COEF   D/F/G COEF
 *******************************************************************************
   1 O   -2.808  -1.377  -2.046
                                  1 S  
                                         1.307E+02 1.543E-01 0.000E+00 0.000E+00
                                         2.381E+01 5.353E-01 0.000E+00 0.000E+00
                                         6.444E+00 4.446E-01 0.000E+00 0.000E+00
                           2-     5 SP 
                                         5.033E+00-9.997E-02 1.559E-01 0.000E+00
                                         1.170E+00 3.995E-01 6.077E-01 0.000E+00
                                         3.804E-01 7.001E-01 3.920E-01 0.000E+00
   2 O    2.597  -1.743  -2.046
   3 O    0.211   3.120  -2.046
   4 O    2.808   1.377   2.046
   5 O   -2.597   1.743   2.046
   6 O   -0.211  -3.120   2.046
   7 AL  -5.194   0.000   0.462
                                 31 S  
                                         3.514E+02 1.543E-01 0.000E+00 0.000E+00
                                         6.401E+01 5.353E-01 0.000E+00 0.000E+00
                                         1.732E+01 4.446E-01 0.000E+00 0.000E+00
                          32-    35 SP 
                                         1.890E+01-9.997E-02 1.559E-01 0.000E+00
                                         4.392E+00 3.995E-01 6.077E-01 0.000E+00
                                         1.428E+00 7.001E-01 3.920E-01 0.000E+00
                          36-    39 SP 
                                         1.395E+00-2.196E-01 1.059E-02 0.000E+00
                                         3.893E-01 2.256E-01 5.952E-01 0.000E+00
                                         1.524E-01 9.004E-01 4.620E-01 0.000E+00
   8 AL  -0.000   0.000   3.630
   9 AL  -2.597  -4.498  -0.462
  10 AL  -0.000  -0.000  -3.630
 INFORMATION **** SET_MPP **** PCRYSTAL CALCULATION
 INFORMATION **** READM2 **** NEW DEFAULT: FOCK/KS MATRIX MIXING SET TO 30 %
 INFORMATION **** READM2 **** NEW DEFAULT: FULL DIRECT SCF MODE
 INFORMATION **** READM2 **** NEW DEFAULT: COULOMB BIPOLAR BUFFER SET TO 32 Mb
 INFORMATION **** READM2 **** NEW DEFAULT: EXCHANGE BIPOLAR BUFFER SET TO 32 Mb
 *******************************************************************************
 N. OF ATOMS PER CELL        10  COULOMB OVERLAP TOL         (T1) 10**   -6
 NUMBER OF SHELLS            24  COULOMB PENETRATION TOL     (T2) 10**   -6
 NUMBER OF AO                66  EXCHANGE OVERLAP TOL        (T3) 10**   -6
 N. OF ELECTRONS PER CELL   100  EXCHANGE PSEUDO OVP (F(G))  (T4) 10**   -6
 CORE ELECTRONS PER CELL     52  EXCHANGE PSEUDO OVP (P(G))  (T5) 10**  -12
 N. OF SYMMETRY OPERATORS    12  POLE ORDER IN MONO ZONE                  4
 *******************************************************************************
 TYPE OF CALCULATION :  RESTRICTED CLOSED SHELL
 HARTREE-FOCK HAMILTONIAN

 CAPPA:IS1  3;IS2  3;IS3  3; K PTS MONK NET   6; SYMMOPS:K SPACE  12;G SPACE  12

 *******************************************************************************
 MAX NUMBER OF SCF CYCLES      50  CONVERGENCE ON DELTAP        10**-16
 WEIGHT OF F(I) IN F(I+1)      30% CONVERGENCE ON ENERGY        10**- 7
 SHRINK. FACT.(MONKH.)    3  3  3  NUMBER OF K POINTS IN THE IBZ      6
 SHRINKING FACTOR(GILAT NET)    3  NUMBER OF K POINTS(GILAT NET)      6
 *******************************************************************************
 *** K POINTS COORDINATES (OBLIQUE COORDINATES IN UNITS OF IS =  3)
   1-R(  0  0  0)   2-C(  1  0  0)   3-C(  1  1  0)   4-C(  2  1  0)
   5-C(  1  1  1)   6-C(  2  1  1)

 DIRECT LATTICE VECTORS COMPON. (A.U.)     RECIP. LATTICE VECTORS COMPON. (A.U.) 
        X            Y            Z              X            Y            Z
    5.1935395   -0.0000000    8.1845929      0.8065386    0.0000000    0.2558948
   -2.5967698    4.4977372    8.1845929     -0.4032693    0.6984829    0.2558948
   -2.5967698   -4.4977372    8.1845929     -0.4032693   -0.6984829    0.2558948

 DISK SPACE FOR EIGENVECTORS (FTN 10)       47916 REALS

 SYMMETRY ADAPTION OF THE BLOCH FUNCTIONS ENABLED
 TTTTTTTTTTTTTTTTTTTTTTTTTTTTTT gordsh1     TELAPSE        0.10 TCPU        0.08

 MATRIX SIZE: P(G)   62554, F(G)   11262, P(G) IRR    3614, F(G) IRR    1302
 MAX G-VECTOR INDEX FOR 1- AND 2-ELECTRON INTEGRALS 111

 TTTTTTTTTTTTTTTTTTTTTTTTTTTTTT INPUT       TELAPSE        0.10 TCPU        0.08

 NEIGHBORS OF THE NON-EQUIVALENT ATOMS

 N = NUMBER OF NEIGHBORS AT DISTANCE R
    ATOM  N     R/ANG      R/AU   NEIGHBORS (ATOM LABELS AND CELL INDICES)
   1 O    2     1.8551     3.5057    9 AL   0 0 0   10 AL   0 0 0
   1 O    2     1.9716     3.7257    7 AL   0 0 0    8 AL  -1 0 0
   1 O    2     2.5249     4.7714    2 O   -1 1 0    3 O   -1 0 1
   1 O    2     2.6200     4.9511    4 O   -1 0 1    4 O   -1 0 0
   1 O    4     2.7255     5.1505    5 O    0 0 0    5 O    0-1 0    6 O    0 0 0
                                     6 O   -1 0 0
   1 O    4     2.8665     5.4170    2 O    0 0 0    2 O   -1 0 1    3 O    0 0 0
                                     3 O    0-1 1

   7 AL   3     1.8551     3.5057    4 O   -1 0 1    5 O    0 0 0    6 O   -1 1 0
   7 AL   3     1.9716     3.7257    1 O    0 0 0    2 O   -1 1 0    3 O   -1 0 1
   7 AL   1     2.6548     5.0168    8 AL  -1 0 0
   7 AL   3     2.7915     5.2752    9 AL   0 0 0    9 AL  -1 1 0    9 AL   0 1-1
   7 AL   3     3.2192     6.0834    8 AL   0 0 0    8 AL  -1 0 1    8 AL  -1 1 0
   7 AL   3     3.2219     6.0885    4 O   -1 1 0    5 O   -1 0 1    6 O    0 0 0


 SYMMETRY ALLOWED ELASTIC DISTORTION 1
  0.5773503  0.0000000  0.0000000
  0.0000000  0.5773503  0.0000000
  0.0000000  0.0000000  0.5773503

 SYMMETRY ALLOWED ELASTIC DISTORTION 2
  0.4082483  0.0000000  0.0000000
  0.0000000  0.4082483  0.0000000
  0.0000000  0.0000000 -0.8164966

 SYMMETRY ALLOWED INTERNAL DEGREE(S) OF FREEDOM:   2
 TTTTTTTTTTTTTTTTTTTTTTTTTTTTTT SYMM        TELAPSE        0.10 TCPU        0.09
 TTTTTTTTTTTTTTTTTTTTTTTTTTTTTT INT_SCREEN  TELAPSE        0.10 TCPU        0.09

 *******************************************************************************
 *                             OPTIMIZATION STARTS                             *
 *******************************************************************************
 RECLASIFICATION OF INDICES FOR INTEGRAL CALC ACCORDING TO DIFFERENT CRITERIA:
           FIXDELTE                  FIXDELTX              FIXDELTN
          0.10000000               0.80000000                 10
 DEFAULT MAX NUM OF POINTS  100
 *******************************************************************************

 *******************************************************************************
 COORDINATE AND CELL OPTIMIZATION - POINT    1
 TTTTTTTTTTTTTTTTTTTTTTTTTTTTTT INT_CALC    TELAPSE        0.15 TCPU        0.13

 *******************************************************************************
 TEST27 - CORUNDUM                                                               
 CRYSTAL - SCF - TYPE OF CALCULATION :  RESTRICTED CLOSED SHELL
 *******************************************************************************

 CAPPA:IS1  3;IS2  3;IS3  3; K PTS MONK NET   6; SYMMOPS:K SPACE  12;G SPACE  12

 TTTTTTTTTTTTTTTTTTTTTTTTTTTTTT SDIK        TELAPSE        0.15 TCPU        0.14

 AAAAAAAAAAAAAAAAAAAAAAAAAAAAAAAAAAAAAAAAAAAAAAAAAAAAAAAAAAAAAAAAAAAAAAAAAAAAAAA
         ATOMIC WAVEFUNCTION(S)


 NUCLEAR CHARGE  8.0  SYMMETRY SPECIES            S    P
 N. ELECTRONS    8.0  NUMBER OF PRIMITIVE GTOS    6    3
                      NUMBER OF CONTRACTED GTOS   2    1
                      NUMBER OF CLOSED SHELLS     2    0
                      OPEN SHELL OCCUPATION       0    4

  ZNUC  SCFIT    TOTAL HF ENERGY   KINETIC ENERGY   VIRIAL THEOREM ACCURACY
   8.0     1    -7.380415026E+01  7.344496710E+01 -2.004890507E+00  0.0E+00

 NUCLEAR CHARGE 13.0  SYMMETRY SPECIES            S    P
 N. ELECTRONS   13.0  NUMBER OF PRIMITIVE GTOS    9    6
                      NUMBER OF CONTRACTED GTOS   3    2
                      NUMBER OF CLOSED SHELLS     3    1
                      OPEN SHELL OCCUPATION       0    1

  ZNUC  SCFIT    TOTAL HF ENERGY   KINETIC ENERGY   VIRIAL THEOREM ACCURACY
  13.0     3    -2.388583408E+02  2.366235615E+02 -2.009444450E+00  1.7E-06

 AAAAAAAAAAAAAAAAAAAAAAAAAAAAAAAAAAAAAAAAAAAAAAAAAAAAAAAAAAAAAAAAAAAAAAAAAAAAAAA

 CHARGE NORMALIZATION FACTOR   1.00000000
 TOTAL ATOMIC CHARGES:
   8.0000000   8.0000000   8.0000000   8.0000000   8.0000000   8.0000000
  13.0000000  13.0000000  13.0000000  13.0000000
 TTTTTTTTTTTTTTTTTTTTTTTTTTTTTT MOQGAD      TELAPSE        0.19 TCPU        0.17
 TTTTTTTTTTTTTTTTTTTTTTTTTTTTTT SHELLXN     TELAPSE        2.50 TCPU        2.48
 TTTTTTTTTTTTTTTTTTTTTTTTTTTTTT MONMO3      TELAPSE        2.56 TCPU        2.53
 CYC   0 ETOT(AU) -1.398376567334E+03 DETOT -1.40E+03 tst  0.00E+00 PX  1.00E+00
 TTTTTTTTTTTTTTTTTTTTTTTTTTTTTT DIIS        TELAPSE        2.56 TCPU        2.54
 TTTTTTTTTTTTTTTTTTTTTTTTTTTTTT FDIK        TELAPSE        2.57 TCPU        2.55
 INSULATING STATE
 TOP OF VALENCE BANDS -    BAND     50; K    1; EIG -2.0782091E-01 AU
 BOTTOM OF VIRTUAL BANDS - BAND     51; K    1; EIG  1.2390255E-01 AU
 DIRECT ENERGY BAND GAP:   9.0267 eV
 TTTTTTTTTTTTTTTTTTTTTTTTTTTTTT PDIG        TELAPSE        2.58 TCPU        2.55
 CHARGE NORMALIZATION FACTOR   1.00000000
 TOTAL ATOMIC CHARGES:
   8.9638150   8.9638150   8.9638150   8.9638150   8.9638150   8.9638150
  11.5542775  11.5542775  11.5542775  11.5542775
 TTTTTTTTTTTTTTTTTTTTTTTTTTTTTT MOQGAD      TELAPSE        2.62 TCPU        2.59
 TTTTTTTTTTTTTTTTTTTTTTTTTTTTTT SHELLXN     TELAPSE        4.99 TCPU        4.96
 TTTTTTTTTTTTTTTTTTTTTTTTTTTTTT MONMO3      TELAPSE        5.04 TCPU        5.01
 CYC   1 ETOT(AU) -1.400215143510E+03 DETOT -1.84E+00 tst  0.00E+00 PX  1.00E+00
 TTTTTTTTTTTTTTTTTTTTTTTTTTTTTT DIIS        TELAPSE        5.04 TCPU        5.01
 DIIS TEST: 0.24564E+00 AT SCF   CYCLE   1 - MIX   30 %
 TTTTTTTTTTTTTTTTTTTTTTTTTTTTTT FDIK        TELAPSE        5.05 TCPU        5.02
 INSULATING STATE
 TOP OF VALENCE BANDS -    BAND     50; K    1; EIG -1.3229596E-01 AU
 BOTTOM OF VIRTUAL BANDS - BAND     51; K    1; EIG  3.2579649E-01 AU
 DIRECT ENERGY BAND GAP:  12.4653 eV
 TTTTTTTTTTTTTTTTTTTTTTTTTTTTTT PDIG        TELAPSE        5.05 TCPU        5.03
 CHARGE NORMALIZATION FACTOR   1.00000000
 TOTAL ATOMIC CHARGES:
   8.7609689   8.7609689   8.7609689   8.7609689   8.7609689   8.7609689
  11.8585466  11.8585466  11.8585466  11.8585466
 TTTTTTTTTTTTTTTTTTTTTTTTTTTTTT MOQGAD      TELAPSE        5.09 TCPU        5.06
 TTTTTTTTTTTTTTTTTTTTTTTTTTTTTT SHELLXN     TELAPSE        7.46 TCPU        7.43
 TTTTTTTTTTTTTTTTTTTTTTTTTTTTTT MONMO3      TELAPSE        7.51 TCPU        7.48
 CYC   2 ETOT(AU) -1.400381422204E+03 DETOT -1.66E-01 tst  5.31E-03 PX  8.29E-02
 TTTTTTTTTTTTTTTTTTTTTTTTTTTTTT DIIS        TELAPSE        7.52 TCPU        7.48
 DIIS TEST: 0.13653E-01 AT SCF   CYCLE   2 - DIIS ACTIVE - HISTORY:     2 CYCLES
 TTTTTTTTTTTTTTTTTTTTTTTTTTTTTT FDIK        TELAPSE        7.53 TCPU        7.49
 INSULATING STATE
 TOP OF VALENCE BANDS -    BAND     50; K    1; EIG -1.7287095E-01 AU
 BOTTOM OF VIRTUAL BANDS - BAND     51; K    1; EIG  3.8511822E-01 AU
 DIRECT ENERGY BAND GAP:  15.1837 eV
 TTTTTTTTTTTTTTTTTTTTTTTTTTTTTT PDIG        TELAPSE        7.53 TCPU        7.50
 CHARGE NORMALIZATION FACTOR   1.00000000
 TOTAL ATOMIC CHARGES:
   8.7324803   8.7324803   8.7324803   8.7324803   8.7324803   8.7324803
  11.9012795  11.9012795  11.9012795  11.9012795
 TTTTTTTTTTTTTTTTTTTTTTTTTTTTTT MOQGAD      TELAPSE        7.57 TCPU        7.53
 TTTTTTTTTTTTTTTTTTTTTTTTTTTTTT SHELLXN     TELAPSE        9.93 TCPU        9.89
 TTTTTTTTTTTTTTTTTTTTTTTTTTTTTT MONMO3      TELAPSE        9.98 TCPU        9.94
 CYC   3 ETOT(AU) -1.400393996944E+03 DETOT -1.26E-02 tst  1.32E-03 PX  3.70E-02
 TTTTTTTTTTTTTTTTTTTTTTTTTTTTTT DIIS        TELAPSE        9.99 TCPU        9.95
 DIIS TEST: 0.21315E-03 AT SCF   CYCLE   3 - DIIS ACTIVE - HISTORY:     3 CYCLES
 TTTTTTTTTTTTTTTTTTTTTTTTTTTTTT FDIK        TELAPSE        9.99 TCPU        9.95
 INSULATING STATE
 TOP OF VALENCE BANDS -    BAND     50; K    3; EIG -1.6867786E-01 AU
 TOP OF VALENCE BANDS -    BAND     50; K    1; EIG -1.6908017E-01 AU
 BOTTOM OF VIRTUAL BANDS - BAND     51; K    1; EIG  3.9467131E-01 AU
 INDIRECT ENERGY BAND GAP:  15.3295 eV
 TTTTTTTTTTTTTTTTTTTTTTTTTTTTTT PDIG        TELAPSE       10.00 TCPU        9.96
 CHARGE NORMALIZATION FACTOR   1.00000000
 TOTAL ATOMIC CHARGES:
   8.7307124   8.7307124   8.7307124   8.7307124   8.7307124   8.7307124
  11.9039313  11.9039313  11.9039313  11.9039313
 TTTTTTTTTTTTTTTTTTTTTTTTTTTTTT MOQGAD      TELAPSE       10.03 TCPU        9.99
 TTTTTTTTTTTTTTTTTTTTTTTTTTTTTT SHELLXN     TELAPSE       11.93 TCPU       11.89
 TTTTTTTTTTTTTTTTTTTTTTTTTTTTTT MONMO3      TELAPSE       11.96 TCPU       11.92
 CYC   4 ETOT(AU) -1.400394271916E+03 DETOT -2.75E-04 tst  2.69E-05 PX  8.23E-03
 TTTTTTTTTTTTTTTTTTTTTTTTTTTTTT DIIS        TELAPSE       11.96 TCPU       11.92
 DIIS TEST: 0.34386E-05 AT SCF   CYCLE   4 - DIIS ACTIVE - HISTORY:     4 CYCLES
 TTTTTTTTTTTTTTTTTTTTTTTTTTTTTT FDIK        TELAPSE       11.96 TCPU       11.93
 INSULATING STATE
 TOP OF VALENCE BANDS -    BAND     50; K    3; EIG -1.6836287E-01 AU
 TOP OF VALENCE BANDS -    BAND     50; K    1; EIG -1.6883928E-01 AU
 BOTTOM OF VIRTUAL BANDS - BAND     51; K    1; EIG  3.9523497E-01 AU
 INDIRECT ENERGY BAND GAP:  15.3363 eV
 TTTTTTTTTTTTTTTTTTTTTTTTTTTTTT PDIG        TELAPSE       11.97 TCPU       11.93
 CHARGE NORMALIZATION FACTOR   1.00000000
 TOTAL ATOMIC CHARGES:
   8.7306007   8.7306007   8.7306007   8.7306007   8.7306007   8.7306007
  11.9040989  11.9040989  11.9040989  11.9040989
 TTTTTTTTTTTTTTTTTTTTTTTTTTTTTT MOQGAD      TELAPSE       11.98 TCPU       11.94
 TTTTTTTTTTTTTTTTTTTTTTTTTTTTTT SHELLXN     TELAPSE       13.28 TCPU       13.24
 TTTTTTTTTTTTTTTTTTTTTTTTTTTTTT MONMO3      TELAPSE       13.31 TCPU       13.27
 CYC   5 ETOT(AU) -1.400394275047E+03 DETOT -3.13E-06 tst  2.93E-07 PX  6.40E-04
 TTTTTTTTTTTTTTTTTTTTTTTTTTTTTT DIIS        TELAPSE       13.31 TCPU       13.27
 DIIS TEST: 0.95261E-07 AT SCF   CYCLE   5 - DIIS ACTIVE - HISTORY:     5 CYCLES
 TTTTTTTTTTTTTTTTTTTTTTTTTTTTTT FDIK        TELAPSE       13.32 TCPU       13.28
 INSULATING STATE
 TOP OF VALENCE BANDS -    BAND     50; K    3; EIG -1.6837753E-01 AU
 TOP OF VALENCE BANDS -    BAND     50; K    1; EIG -1.6887130E-01 AU
 BOTTOM OF VIRTUAL BANDS - BAND     51; K    1; EIG  3.9526922E-01 AU
 INDIRECT ENERGY BAND GAP:  15.3376 eV
 TTTTTTTTTTTTTTTTTTTTTTTTTTTTTT PDIG        TELAPSE       13.32 TCPU       13.28
 CHARGE NORMALIZATION FACTOR   1.00000000
 TOTAL ATOMIC CHARGES:
   8.7305863   8.7305863   8.7305863   8.7305863   8.7305863   8.7305863
  11.9041205  11.9041205  11.9041205  11.9041205
 TTTTTTTTTTTTTTTTTTTTTTTTTTTTTT MOQGAD      TELAPSE       13.33 TCPU       13.30
 TTTTTTTTTTTTTTTTTTTTTTTTTTTTTT SHELLXN     TELAPSE       14.67 TCPU       14.63
 TTTTTTTTTTTTTTTTTTTTTTTTTTTTTT MONMO3      TELAPSE       14.70 TCPU       14.66
 CYC   6 ETOT(AU) -1.400394275252E+03 DETOT -2.05E-07 tst  1.42E-08 PX  8.93E-05
 TTTTTTTTTTTTTTTTTTTTTTTTTTTTTT DIIS        TELAPSE       14.70 TCPU       14.66
 DIIS TEST: 0.88020E-08 AT SCF   CYCLE   6 - DIIS ACTIVE - HISTORY:     6 CYCLES
 TTTTTTTTTTTTTTTTTTTTTTTTTTTTTT FDIK        TELAPSE       14.70 TCPU       14.67
 INSULATING STATE
 TOP OF VALENCE BANDS -    BAND     50; K    3; EIG -1.6838814E-01 AU
 TOP OF VALENCE BANDS -    BAND     50; K    1; EIG -1.6888878E-01 AU
 BOTTOM OF VIRTUAL BANDS - BAND     51; K    1; EIG  3.9526774E-01 AU
 INDIRECT ENERGY BAND GAP:  15.3379 eV
 TTTTTTTTTTTTTTTTTTTTTTTTTTTTTT PDIG        TELAPSE       14.71 TCPU       14.67
 CHARGE NORMALIZATION FACTOR   1.00000000
 TOTAL ATOMIC CHARGES:
   8.7305795   8.7305795   8.7305795   8.7305795   8.7305795   8.7305795
  11.9041307  11.9041307  11.9041307  11.9041307
 TTTTTTTTTTTTTTTTTTTTTTTTTTTTTT MOQGAD      TELAPSE       14.72 TCPU       14.68
 TTTTTTTTTTTTTTTTTTTTTTTTTTTTTT SHELLXN     TELAPSE       16.02 TCPU       15.98
 TTTTTTTTTTTTTTTTTTTTTTTTTTTTTT MONMO3      TELAPSE       16.05 TCPU       16.01
 CYC   7 ETOT(AU) -1.400394275291E+03 DETOT -3.96E-08 tst  3.51E-09 PX  3.81E-05
 TTTTTTTTTTTTTTTTTTTTTTTTTTTTTT DIIS        TELAPSE       16.05 TCPU       16.01
 DIIS TEST: 0.30611E-09 AT SCF   CYCLE   7 - DIIS ACTIVE - HISTORY:     7 CYCLES
 TTTTTTTTTTTTTTTTTTTTTTTTTTTTTT FDIK        TELAPSE       16.06 TCPU       16.02
 INSULATING STATE
 TOP OF VALENCE BANDS -    BAND     50; K    3; EIG -1.6838752E-01 AU
 TOP OF VALENCE BANDS -    BAND     50; K    1; EIG -1.6888867E-01 AU
 BOTTOM OF VIRTUAL BANDS - BAND     51; K    1; EIG  3.9526465E-01 AU
 INDIRECT ENERGY BAND GAP:  15.3378 eV
 TTTTTTTTTTTTTTTTTTTTTTTTTTTTTT PDIG        TELAPSE       16.06 TCPU       16.02
 CHARGE NORMALIZATION FACTOR   1.00000000
 TOTAL ATOMIC CHARGES:
   8.7305789   8.7305789   8.7305789   8.7305789   8.7305789   8.7305789
  11.9041316  11.9041316  11.9041316  11.9041316
 TTTTTTTTTTTTTTTTTTTTTTTTTTTTTT MOQGAD      TELAPSE       16.07 TCPU       16.04
 TTTTTTTTTTTTTTTTTTTTTTTTTTTTTT SHELLXN     TELAPSE       17.37 TCPU       17.33
 +++ ENERGIES IN A.U. +++
 ::: EXT EL-POLE                                  -2.5077061736252E+03
 ::: EXT EL-SPHEROPOLE                             2.1815476298806E+01
 ::: BIELET ZONE E-E                               2.7337393150415E+03
 ::: TOTAL E-E                                     2.4784861771508E+02
 ::: TOTAL E-N + N-E                              -2.6663287590682E+03
 ::: TOTAL N-N                                    -3.6471770385693E+02
 ::: KINETIC ENERGY                                1.3828035699169E+03
 ::: TOTAL   ENERGY                               -1.4003942752931E+03
 ::: VIRIAL COEFFICIENT                            9.9367967842942E-01
 TTTTTTTTTTTTTTTTTTTTTTTTTTTTTT MONMO3      TELAPSE       17.40 TCPU       17.36
 CYC   8 ETOT(AU) -1.400394275293E+03 DETOT -1.93E-09 tst  3.69E-11 PX  3.81E-05

 == SCF ENDED - CONVERGENCE ON ENERGY      E(AU) -1.4003942752931E+03 CYCLES   8

 TOTAL ENERGY(HF)(AU)(   8) -1.4003942752931E+03 DE-1.9E-09 tst 3.7E-11 PX 3.8E-05

 *******************************************************************************
 *                             FORCE CALCULATION                               *
 *******************************************************************************

 INFORMATION **** EXCPOG **** EXCH. BIPO BUFFER LENGTH (WORDS) =      720504
 INFORMATION **** GENPOG **** BIPO BUFFER LENGTH (WORDS) =       94200
 TTTTTTTTTTTTTTTTTTTTTTTTTTTTTT SHELXG      TELAPSE       35.80 TCPU       35.75

 CARTESIAN FORCES IN HARTREE/BOHR (ANALYTICAL)
   ATOM                     X                   Y                   Z
   1   8            -1.351909784913E-02  7.805254782399E-03 -6.661338147751E-15
   2   8             7.134145321503E-15 -1.561050956479E-02  4.884981308351E-15
   3   8             1.351909784913E-02  7.805254782380E-03 -3.996802888651E-15
   4   8             1.351909784913E-02 -7.805254782405E-03  8.955799065310E-15
   5   8             1.544097987651E-15  1.561050956479E-02  4.440892098501E-16
   6   8            -1.351909784914E-02 -7.805254782382E-03  9.843977485010E-15
   7  13             1.080859104771E-14 -2.236463630513E-15 -6.988395856861E-03
   8  13             4.561688514881E-15 -1.254780390061E-14  6.988395856859E-03
   9  13            -1.269215625298E-14 -1.862128508091E-15  6.988395856899E-03
  10  13            -3.769842617159E-15  1.679442577583E-14 -6.988395856909E-03

 RESULTANT FORCE    -9.234511303783E-16 -5.918298258874E-16  2.221313410988E-15

 ATOMIC PART

 SYMMETRY ALLOWED FORCES (ANALYTICAL) (DIRECTION, FORCE)

    1 -3.8237783E-02    2 -1.3976792E-02

 CELL PART

 GRADIENT WITH RESPECT TO THE CELL PARAMETER IN HARTREE/BOHR
ORDER: -D/DA1X, -D/DA1Y, -D/DA1Z
       -D/DA2X, -D/DA2Y, -D/DA2Z
       -D/DA3X, -D/DA3Y, -D/DA3Z
 -0.131514885893E+00 -0.884201099875E-14 -0.426235203112E-01
  0.657574429464E-01 -0.113895232159E+00 -0.426235203112E-01
  0.657574429464E-01  0.113895232159E+00 -0.426235203112E-01

STRESS TENSOR, IN HARTREE/BOHR^3:
ORDER: 11 12 13
       21 22 23
       31 32 33
  0.178629738698E-02  0.673621933384E-16  0.448955200668E-17
  0.801015809163E-16  0.178629738698E-02  0.126271275424E-15
 -0.262689886592E-17  0.881568916164E-16  0.182470137897E-02

STRESS TENSOR DOES NOT CORRESPOND TO
HYDROSTATIC PRESSURE, NO PRESSURE COMPUTED!

 SYMMETRY ALLOWED FORCES (ANALYTICAL) (DIRECTION, FORCE)

    1 -2.4133686E-01    2  2.4617514E-03
 TTTTTTTTTTTTTTTTTTTTTTTTTTTTTT TOTGRA      TELAPSE       36.94 TCPU       36.88
 INFORMATION **** optc001 **** GEOMETRY OUTPUT FILE
 CLASSICAL MODEL (SCHLEGEL) USED AS INITIAL HESSIAN MATRIX
 REFERENCE GEOMETRY DEFINED

 MAX GRADIENT      0.241337  THRESHOLD              0.000450 CONVERGED NO
 RMS GRADIENT      0.122380  THRESHOLD              0.000300 CONVERGED NO

 GRADIENT NORM     0.244759  GRADIENT THRESHOLD     0.500000

 EIGENVALUES OF THE ESTIMATED HESSIAN
  0.2970      0.3582      0.6198       1.624    
 NEWTON STEP ( 0.7782883846E+00) EXCEEDS TRUST RADIUS ( 0.5000000000E+00)
 LEVEL SHIFT    -0.1309686842E+00

 INITIAL TRUST RADIUS    0.5000000000E+00

 PREDICTED ENERGY CHANGE    -0.821E-01

 INITIAL DISPLACEMENTS
 -0.033754  0.017535 -0.497819  0.027011
 TTTTTTTTTTTTTTTTTTTTTTTTTTTTTT OPTI        TELAPSE       36.99 TCPU       36.93

 OPTOPTOPTOPTOPTOPTOPTOPTOPTOPTOPTOPTOPTOPTOPTOPTOPTOPTOPTOPTOPTOPTOPTOPTOPTOPT

 - INFORMATION ON SCF MOVED TO SCFOUT.LOG
 GEOMETRY OPTIMIZATION INFORMATION STORED IN OPTINFO.DAT

 OPTOPTOPTOPTOPTOPTOPTOPTOPTOPTOPTOPTOPTOPTOPTOPTOPTOPTOPTOPTOPTOPTOPTOPTOPTOPT
 *******************************************************************************
 COORDINATE AND CELL OPTIMIZATION - POINT    2
 *******************************************************************************
 LATTICE PARAMETERS (ANGSTROMS AND DEGREES) - BOHR = 0.5291772083 ANGSTROM
 PRIMITIVE CELL - CENTRING CODE 7/0 VOLUME=    75.475126 - DENSITY  4.486 g/cm^3
         A              B              C           ALPHA      BETA       GAMMA 
     4.92160234     4.92160234     4.92160234    55.493460  55.493460  55.493460
 *******************************************************************************
 ATOMS IN THE ASYMMETRIC UNIT    2 - ATOMS IN THE UNIT CELL:   10
     ATOM                 X/A                 Y/B                 Z/C    
 *******************************************************************************
      1 T   8 O    -4.452918702902E-01 -5.470812970982E-02  2.500000000000E-01
      2 F   8 O     2.500000000000E-01 -4.452918702902E-01 -5.470812970982E-02
      3 F   8 O    -5.470812970982E-02  2.500000000000E-01 -4.452918702902E-01
      4 F   8 O     4.452918702902E-01  5.470812970982E-02 -2.500000000000E-01
      5 F   8 O    -2.500000000000E-01  4.452918702902E-01  5.470812970982E-02
      6 F   8 O     5.470812970982E-02 -2.500000000000E-01  4.452918702902E-01
      7 T  13 AL    3.525170781831E-01  3.525170781831E-01  3.525170781831E-01
      8 F  13 AL    1.474829218169E-01  1.474829218169E-01  1.474829218169E-01
      9 F  13 AL   -3.525170781831E-01 -3.525170781831E-01 -3.525170781831E-01
     10 F  13 AL   -1.474829218169E-01 -1.474829218169E-01 -1.474829218169E-01

 TRANSFORMATION MATRIX PRIMITIVE-CRYSTALLOGRAPHIC CELL
  1.0000  0.0000  1.0000 -1.0000  1.0000  1.0000  0.0000 -1.0000  1.0000

 *******************************************************************************
 CRYSTALLOGRAPHIC CELL (VOLUME=        226.42537782)
         A              B              C           ALPHA      BETA       GAMMA 
     4.58264184     4.58264184    12.44980754    90.000000  90.000000 120.000000

 COORDINATES IN THE CRYSTALLOGRAPHIC CELL
     ATOM                 X/A                 Y/B                 Z/C    
 *******************************************************************************
      1 T   8 O    -3.619585369568E-01 -3.333333333333E-01 -8.333333333333E-02
      2 F   8 O     3.333333333333E-01 -2.862520362352E-02 -8.333333333333E-02
      3 F   8 O     2.862520362352E-02  3.619585369568E-01 -8.333333333333E-02
      4 F   8 O     3.619585369568E-01  3.333333333333E-01  8.333333333333E-02
      5 F   8 O    -3.333333333333E-01  2.862520362352E-02  8.333333333333E-02
      6 F   8 O    -2.862520362352E-02 -3.619585369568E-01  8.333333333333E-02
      7 T  13 AL    3.333333333333E-01 -3.333333333333E-01  1.918374484980E-02
      8 F  13 AL   -3.386585068730E-18  5.954188251948E-17  1.474829218169E-01
      9 F  13 AL   -3.333333333333E-01  3.333333333333E-01 -1.918374484980E-02
     10 F  13 AL   -1.362294587029E-17 -9.267482740351E-17 -1.474829218169E-01

 T = ATOM BELONGING TO THE ASYMMETRIC UNIT

 TOTAL ENERGY(HF)(AU)(   7) -1.4004669418219E+03     DE (AU)   -7.267E-02

 UPDATED TRUST RADIUS     0.100E+01

 SYMMETRY ALLOWED FORCES  (COORDINATE, FORCE)

    1 -1.7818041E-02    2 -1.8957543E-02    3 -3.5426147E-02    4  6.6732916E-03

 GRADIENT NORM     0.044457  GRADIENT THRESHOLD     0.500000

 EIGENVALUES OF THE ESTIMATED HESSIAN
  0.3384      0.4230      0.6084       1.620    

 PREDICTED ENERGY CHANGE    -0.194E-02

 MAX GRADIENT      0.035426  THRESHOLD              0.000450 CONVERGED NO
 RMS GRADIENT      0.022228  THRESHOLD              0.000300 CONVERGED NO
 MAX DISPLAC.      0.085289  THRESHOLD              0.001800 CONVERGED NO
 RMS DISPLAC.      0.046633  THRESHOLD              0.001200 CONVERGED NO
 TTTTTTTTTTTTTTTTTTTTTTTTTTTTTT OPTI        TELAPSE       67.17 TCPU       67.12
 *******************************************************************************
 COORDINATE AND CELL OPTIMIZATION - POINT    3
 *******************************************************************************
 LATTICE PARAMETERS (ANGSTROMS AND DEGREES) - BOHR = 0.5291772083 ANGSTROM
 PRIMITIVE CELL - CENTRING CODE 7/0 VOLUME=    73.979340 - DENSITY  4.577 g/cm^3
         A              B              C           ALPHA      BETA       GAMMA 
     4.88300916     4.88300916     4.88300916    55.629959  55.629959  55.629959
 *******************************************************************************
 ATOMS IN THE ASYMMETRIC UNIT    2 - ATOMS IN THE UNIT CELL:   10
     ATOM                 X/A                 Y/B                 Z/C    
 *******************************************************************************
      1 T   8 O    -4.467250033162E-01 -5.327499668385E-02  2.500000000000E-01
      2 F   8 O     2.500000000000E-01 -4.467250033162E-01 -5.327499668385E-02
      3 F   8 O    -5.327499668385E-02  2.500000000000E-01 -4.467250033162E-01
      4 F   8 O     4.467250033162E-01  5.327499668385E-02 -2.500000000000E-01
      5 F   8 O    -2.500000000000E-01  4.467250033162E-01  5.327499668385E-02
      6 F   8 O     5.327499668385E-02 -2.500000000000E-01  4.467250033162E-01
      7 T  13 AL    3.523444765758E-01  3.523444765758E-01  3.523444765758E-01
      8 F  13 AL    1.476555234242E-01  1.476555234242E-01  1.476555234242E-01
      9 F  13 AL   -3.523444765758E-01 -3.523444765758E-01 -3.523444765758E-01
     10 F  13 AL   -1.476555234242E-01 -1.476555234242E-01 -1.476555234242E-01

 TRANSFORMATION MATRIX PRIMITIVE-CRYSTALLOGRAPHIC CELL
  1.0000  0.0000  1.0000 -1.0000  1.0000  1.0000  0.0000 -1.0000  1.0000

 *******************************************************************************
 CRYSTALLOGRAPHIC CELL (VOLUME=        221.93801884)
         A              B              C           ALPHA      BETA       GAMMA 
     4.55699884     4.55699884    12.34079783    90.000000  90.000000 120.000000

 COORDINATES IN THE CRYSTALLOGRAPHIC CELL
     ATOM                 X/A                 Y/B                 Z/C    
 *******************************************************************************
      1 T   8 O    -3.633916699828E-01 -3.333333333333E-01 -8.333333333333E-02
      2 F   8 O     3.333333333333E-01 -3.005833664948E-02 -8.333333333333E-02
      3 F   8 O     3.005833664948E-02  3.633916699828E-01 -8.333333333333E-02
      4 F   8 O     3.633916699828E-01  3.333333333333E-01  8.333333333333E-02
      5 F   8 O    -3.333333333333E-01  3.005833664948E-02  8.333333333333E-02
      6 F   8 O    -3.005833664948E-02 -3.633916699828E-01  8.333333333333E-02
      7 T  13 AL    3.333333333333E-01 -3.333333333333E-01  1.901114324248E-02
      8 F  13 AL   -3.386585068730E-18  5.954188251948E-17  1.476555234242E-01
      9 F  13 AL   -3.333333333333E-01  3.333333333333E-01 -1.901114324248E-02
     10 F  13 AL   -1.362294587029E-17 -9.267482740351E-17 -1.476555234242E-01

 T = ATOM BELONGING TO THE ASYMMETRIC UNIT

 TOTAL ENERGY(HF)(AU)(   6) -1.4004688213405E+03     DE (AU)   -1.880E-03

 UPDATED TRUST RADIUS     0.200E+01

 SYMMETRY ALLOWED FORCES  (COORDINATE, FORCE)

    1 -9.1459702E-04    2 -1.0573218E-02    3  3.6594105E-03    4  3.0066132E-03

 GRADIENT NORM     0.011622  GRADIENT THRESHOLD     0.500000

 EIGENVALUES OF THE ESTIMATED HESSIAN
  0.3357      0.4770      0.5878       1.552    

 PREDICTED ENERGY CHANGE    -0.538E-04

 MAX GRADIENT      0.010573  THRESHOLD              0.000450 CONVERGED NO
 RMS GRADIENT      0.005811  THRESHOLD              0.000300 CONVERGED NO
 MAX DISPLAC.      0.006638  THRESHOLD              0.001800 CONVERGED NO
 RMS DISPLAC.      0.005261  THRESHOLD              0.001200 CONVERGED NO
 TTTTTTTTTTTTTTTTTTTTTTTTTTTTTT OPTI        TELAPSE       95.77 TCPU       95.71
 *******************************************************************************
 COORDINATE AND CELL OPTIMIZATION - POINT    4
 *******************************************************************************
 LATTICE PARAMETERS (ANGSTROMS AND DEGREES) - BOHR = 0.5291772083 ANGSTROM
 PRIMITIVE CELL - CENTRING CODE 7/0 VOLUME=    74.094242 - DENSITY  4.570 g/cm^3
         A              B              C           ALPHA      BETA       GAMMA 
     4.88441191     4.88441191     4.88441191    55.656200  55.656200  55.656200
 *******************************************************************************
 ATOMS IN THE ASYMMETRIC UNIT    2 - ATOMS IN THE UNIT CELL:   10
     ATOM                 X/A                 Y/B                 Z/C    
 *******************************************************************************
      1 T   8 O    -4.468703085359E-01 -5.312969146413E-02  2.500000000000E-01
      2 F   8 O     2.500000000000E-01 -4.468703085359E-01 -5.312969146413E-02
      3 F   8 O    -5.312969146413E-02  2.500000000000E-01 -4.468703085359E-01
      4 F   8 O     4.468703085359E-01  5.312969146413E-02 -2.500000000000E-01
      5 F   8 O    -2.500000000000E-01  4.468703085359E-01  5.312969146413E-02
      6 F   8 O     5.312969146413E-02 -2.500000000000E-01  4.468703085359E-01
      7 T  13 AL    3.522108455455E-01  3.522108455455E-01  3.522108455455E-01
      8 F  13 AL    1.477891544545E-01  1.477891544545E-01  1.477891544545E-01
      9 F  13 AL   -3.522108455455E-01 -3.522108455455E-01 -3.522108455455E-01
     10 F  13 AL   -1.477891544545E-01 -1.477891544545E-01 -1.477891544545E-01

 TRANSFORMATION MATRIX PRIMITIVE-CRYSTALLOGRAPHIC CELL
  1.0000  0.0000  1.0000 -1.0000  1.0000  1.0000  0.0000 -1.0000  1.0000

 *******************************************************************************
 CRYSTALLOGRAPHIC CELL (VOLUME=        222.28272675)
         A              B              C           ALPHA      BETA       GAMMA 
     4.56028644     4.56028644    12.34215055    90.000000  90.000000 120.000000

 COORDINATES IN THE CRYSTALLOGRAPHIC CELL
     ATOM                 X/A                 Y/B                 Z/C    
 *******************************************************************************
      1 T   8 O    -3.635369752025E-01 -3.333333333333E-01 -8.333333333333E-02
      2 F   8 O     3.333333333333E-01 -3.020364186920E-02 -8.333333333333E-02
      3 F   8 O     3.020364186920E-02  3.635369752025E-01 -8.333333333333E-02
      4 F   8 O     3.635369752025E-01  3.333333333333E-01  8.333333333333E-02
      5 F   8 O    -3.333333333333E-01  3.020364186920E-02  8.333333333333E-02
      6 F   8 O    -3.020364186920E-02 -3.635369752025E-01  8.333333333333E-02
      7 T  13 AL    3.333333333333E-01 -3.333333333333E-01  1.887751221212E-02
      8 F  13 AL   -3.386585068730E-18  5.954188251948E-17  1.477891544545E-01
      9 F  13 AL   -3.333333333333E-01  3.333333333333E-01 -1.887751221212E-02
     10 F  13 AL   -1.362294587029E-17 -9.267482740351E-17 -1.477891544545E-01

 T = ATOM BELONGING TO THE ASYMMETRIC UNIT

 TOTAL ENERGY(HF)(AU)(   4) -1.4004689026126E+03     DE (AU)   -8.127E-05

 UPDATED TRUST RADIUS     0.400E+01

 SYMMETRY ALLOWED FORCES  (COORDINATE, FORCE)

    1  1.0643964E-03    2 -7.4032024E-03    3  6.8713568E-04    4  1.3616739E-03

 GRADIENT NORM     0.007633  GRADIENT THRESHOLD     0.500000

 EIGENVALUES OF THE ESTIMATED HESSIAN
  0.3380      0.4562      0.5739      0.8109    

 PREDICTED ENERGY CHANGE    -0.488E-04

 MAX GRADIENT      0.007403  THRESHOLD              0.000450 CONVERGED NO
 RMS GRADIENT      0.003817  THRESHOLD              0.000300 CONVERGED NO
 MAX DISPLAC.      0.012289  THRESHOLD              0.001800 CONVERGED NO
 RMS DISPLAC.      0.006610  THRESHOLD              0.001200 CONVERGED NO
 TTTTTTTTTTTTTTTTTTTTTTTTTTTTTT OPTI        TELAPSE      121.59 TCPU      121.52
 *******************************************************************************
 COORDINATE AND CELL OPTIMIZATION - POINT    5
 *******************************************************************************
 LATTICE PARAMETERS (ANGSTROMS AND DEGREES) - BOHR = 0.5291772083 ANGSTROM
 PRIMITIVE CELL - CENTRING CODE 7/0 VOLUME=    74.167520 - DENSITY  4.565 g/cm^3
         A              B              C           ALPHA      BETA       GAMMA 
     4.88528504     4.88528504     4.88528504    55.673406  55.673406  55.673406
 *******************************************************************************
 ATOMS IN THE ASYMMETRIC UNIT    2 - ATOMS IN THE UNIT CELL:   10
     ATOM                 X/A                 Y/B                 Z/C    
 *******************************************************************************
      1 T   8 O    -4.468530947262E-01 -5.314690527381E-02  2.500000000000E-01
      2 F   8 O     2.500000000000E-01 -4.468530947262E-01 -5.314690527381E-02
      3 F   8 O    -5.314690527381E-02  2.500000000000E-01 -4.468530947262E-01
      4 F   8 O     4.468530947262E-01  5.314690527381E-02 -2.500000000000E-01
      5 F   8 O    -2.500000000000E-01  4.468530947262E-01  5.314690527381E-02
      6 F   8 O     5.314690527381E-02 -2.500000000000E-01  4.468530947262E-01
      7 T  13 AL    3.519606035827E-01  3.519606035827E-01  3.519606035827E-01
      8 F  13 AL    1.480393964173E-01  1.480393964173E-01  1.480393964173E-01
      9 F  13 AL   -3.519606035827E-01 -3.519606035827E-01 -3.519606035827E-01
     10 F  13 AL   -1.480393964173E-01 -1.480393964173E-01 -1.480393964173E-01

 TRANSFORMATION MATRIX PRIMITIVE-CRYSTALLOGRAPHIC CELL
  1.0000  0.0000  1.0000 -1.0000  1.0000  1.0000  0.0000 -1.0000  1.0000

 *******************************************************************************
 CRYSTALLOGRAPHIC CELL (VOLUME=        222.50255907)
         A              B              C           ALPHA      BETA       GAMMA 
     4.56239895     4.56239895    12.34291849    90.000000  90.000000 120.000000

 COORDINATES IN THE CRYSTALLOGRAPHIC CELL
     ATOM                 X/A                 Y/B                 Z/C    
 *******************************************************************************
      1 T   8 O    -3.635197613929E-01 -3.333333333333E-01 -8.333333333333E-02
      2 F   8 O     3.333333333333E-01 -3.018642805952E-02 -8.333333333333E-02
      3 F   8 O     3.018642805952E-02  3.635197613929E-01 -8.333333333333E-02
      4 F   8 O     3.635197613929E-01  3.333333333333E-01  8.333333333333E-02
      5 F   8 O    -3.333333333333E-01  3.018642805952E-02  8.333333333333E-02
      6 F   8 O    -3.018642805952E-02 -3.635197613929E-01  8.333333333333E-02
      7 T  13 AL    3.333333333333E-01 -3.333333333333E-01  1.862727024941E-02
      8 F  13 AL   -3.386585068730E-18  5.954188251948E-17  1.480393964173E-01
      9 F  13 AL   -3.333333333333E-01  3.333333333333E-01 -1.862727024941E-02
     10 F  13 AL   -1.362294587029E-17 -9.267482740351E-17 -1.480393964173E-01

 T = ATOM BELONGING TO THE ASYMMETRIC UNIT

 TOTAL ENERGY(HF)(AU)(   5) -1.4004689642790E+03     DE (AU)   -6.167E-05

 UPDATED TRUST RADIUS     0.400E+01

 SYMMETRY ALLOWED FORCES  (COORDINATE, FORCE)

    1  2.1751908E-03    2 -2.6518762E-03    3 -1.2190020E-03    4 -5.9768793E-04

 GRADIENT NORM     0.003689  GRADIENT THRESHOLD     0.500000

 EIGENVALUES OF THE ESTIMATED HESSIAN
  0.2932      0.4365      0.5360      0.7583    

 PREDICTED ENERGY CHANGE    -0.153E-04

 MAX GRADIENT      0.002652  THRESHOLD              0.000450 CONVERGED NO
 RMS GRADIENT      0.001844  THRESHOLD              0.000300 CONVERGED NO
 MAX DISPLAC.      0.007664  THRESHOLD              0.001800 CONVERGED NO
 RMS DISPLAC.      0.004453  THRESHOLD              0.001200 CONVERGED NO
 TTTTTTTTTTTTTTTTTTTTTTTTTTTTTT OPTI        TELAPSE      148.91 TCPU      148.83
 *******************************************************************************
 COORDINATE AND CELL OPTIMIZATION - POINT    6
 *******************************************************************************
 LATTICE PARAMETERS (ANGSTROMS AND DEGREES) - BOHR = 0.5291772083 ANGSTROM
 PRIMITIVE CELL - CENTRING CODE 7/0 VOLUME=    74.161042 - DENSITY  4.565 g/cm^3
         A              B              C           ALPHA      BETA       GAMMA 
     4.88586024     4.88586024     4.88586024    55.656646  55.656646  55.656646
 *******************************************************************************
 ATOMS IN THE ASYMMETRIC UNIT    2 - ATOMS IN THE UNIT CELL:   10
     ATOM                 X/A                 Y/B                 Z/C    
 *******************************************************************************
      1 T   8 O    -4.466771688622E-01 -5.332283113780E-02  2.500000000000E-01
      2 F   8 O     2.500000000000E-01 -4.466771688622E-01 -5.332283113780E-02
      3 F   8 O    -5.332283113780E-02  2.500000000000E-01 -4.466771688622E-01
      4 F   8 O     4.466771688622E-01  5.332283113780E-02 -2.500000000000E-01
      5 F   8 O    -2.500000000000E-01  4.466771688622E-01  5.332283113780E-02
      6 F   8 O     5.332283113780E-02 -2.500000000000E-01  4.466771688622E-01
      7 T  13 AL    3.518045459793E-01  3.518045459793E-01  3.518045459793E-01
      8 F  13 AL    1.481954540207E-01  1.481954540207E-01  1.481954540207E-01
      9 F  13 AL   -3.518045459793E-01 -3.518045459793E-01 -3.518045459793E-01
     10 F  13 AL   -1.481954540207E-01 -1.481954540207E-01 -1.481954540207E-01

 TRANSFORMATION MATRIX PRIMITIVE-CRYSTALLOGRAPHIC CELL
  1.0000  0.0000  1.0000 -1.0000  1.0000  1.0000  0.0000 -1.0000  1.0000

 *******************************************************************************
 CRYSTALLOGRAPHIC CELL (VOLUME=        222.48312593)
         A              B              C           ALPHA      BETA       GAMMA 
     4.56167226     4.56167226    12.34577300    90.000000  90.000000 120.000000

 COORDINATES IN THE CRYSTALLOGRAPHIC CELL
     ATOM                 X/A                 Y/B                 Z/C    
 *******************************************************************************
      1 T   8 O    -3.633438355289E-01 -3.333333333333E-01 -8.333333333333E-02
      2 F   8 O     3.333333333333E-01 -3.001050219553E-02 -8.333333333333E-02
      3 F   8 O     3.001050219553E-02  3.633438355289E-01 -8.333333333333E-02
      4 F   8 O     3.633438355289E-01  3.333333333333E-01  8.333333333333E-02
      5 F   8 O    -3.333333333333E-01  3.001050219553E-02  8.333333333333E-02
      6 F   8 O    -3.001050219553E-02 -3.633438355289E-01  8.333333333333E-02
      7 T  13 AL    3.333333333333E-01 -3.333333333333E-01  1.847121264598E-02
      8 F  13 AL   -3.386585068730E-18  5.954188251948E-17  1.481954540207E-01
      9 F  13 AL   -3.333333333333E-01  3.333333333333E-01 -1.847121264598E-02
     10 F  13 AL   -1.362294587029E-17 -9.267482740351E-17 -1.481954540207E-01

 T = ATOM BELONGING TO THE ASYMMETRIC UNIT

 TOTAL ENERGY(HF)(AU)(   4) -1.4004689847872E+03     DE (AU)   -2.051E-05

 UPDATED TRUST RADIUS     0.400E+01

 SYMMETRY ALLOWED FORCES  (COORDINATE, FORCE)

    1  1.3521947E-03    2 -4.9818305E-04    3 -1.0939179E-03    4 -9.1436817E-04

 GRADIENT NORM     0.002027  GRADIENT THRESHOLD     0.500000

 EIGENVALUES OF THE ESTIMATED HESSIAN
  0.1970      0.4524      0.5242      0.6916    

 PREDICTED ENERGY CHANGE    -0.659E-05

 MAX GRADIENT      0.001352  THRESHOLD              0.000450 CONVERGED NO
 RMS GRADIENT      0.001014  THRESHOLD              0.000300 CONVERGED NO
 MAX DISPLAC.      0.004392  THRESHOLD              0.001800 CONVERGED NO
 RMS DISPLAC.      0.003691  THRESHOLD              0.001200 CONVERGED NO
 TTTTTTTTTTTTTTTTTTTTTTTTTTTTTT OPTI        TELAPSE      175.55 TCPU      175.46
 *******************************************************************************
 COORDINATE AND CELL OPTIMIZATION - POINT    7
 *******************************************************************************
 LATTICE PARAMETERS (ANGSTROMS AND DEGREES) - BOHR = 0.5291772083 ANGSTROM
 PRIMITIVE CELL - CENTRING CODE 7/0 VOLUME=    74.129562 - DENSITY  4.567 g/cm^3
         A              B              C           ALPHA      BETA       GAMMA 
     4.88642949     4.88642949     4.88642949    55.627219  55.627219  55.627219
 *******************************************************************************
 ATOMS IN THE ASYMMETRIC UNIT    2 - ATOMS IN THE UNIT CELL:   10
     ATOM                 X/A                 Y/B                 Z/C    
 *******************************************************************************
      1 T   8 O    -4.465003358263E-01 -5.349966417370E-02  2.500000000000E-01
      2 F   8 O     2.500000000000E-01 -4.465003358263E-01 -5.349966417370E-02
      3 F   8 O    -5.349966417370E-02  2.500000000000E-01 -4.465003358263E-01
      4 F   8 O     4.465003358263E-01  5.349966417370E-02 -2.500000000000E-01
      5 F   8 O    -2.500000000000E-01  4.465003358263E-01  5.349966417370E-02
      6 F   8 O     5.349966417370E-02 -2.500000000000E-01  4.465003358263E-01
      7 T  13 AL    3.517151028918E-01  3.517151028918E-01  3.517151028918E-01
      8 F  13 AL    1.482848971082E-01  1.482848971082E-01  1.482848971082E-01
      9 F  13 AL   -3.517151028918E-01 -3.517151028918E-01 -3.517151028918E-01
     10 F  13 AL   -1.482848971082E-01 -1.482848971082E-01 -1.482848971082E-01

 TRANSFORMATION MATRIX PRIMITIVE-CRYSTALLOGRAPHIC CELL
  1.0000  0.0000  1.0000 -1.0000  1.0000  1.0000  0.0000 -1.0000  1.0000

 *******************************************************************************
 CRYSTALLOGRAPHIC CELL (VOLUME=        222.38868535)
         A              B              C           ALPHA      BETA       GAMMA 
     4.55998418     4.55998418    12.34967088    90.000000  90.000000 120.000000

 COORDINATES IN THE CRYSTALLOGRAPHIC CELL
     ATOM                 X/A                 Y/B                 Z/C    
 *******************************************************************************
      1 T   8 O    -3.631670024930E-01 -3.333333333333E-01 -8.333333333333E-02
      2 F   8 O     3.333333333333E-01 -2.983366915963E-02 -8.333333333333E-02
      3 F   8 O     2.983366915963E-02  3.631670024930E-01 -8.333333333333E-02
      4 F   8 O     3.631670024930E-01  3.333333333333E-01  8.333333333333E-02
      5 F   8 O    -3.333333333333E-01  2.983366915963E-02  8.333333333333E-02
      6 F   8 O    -2.983366915963E-02 -3.631670024930E-01  8.333333333333E-02
      7 T  13 AL    3.333333333333E-01 -3.333333333333E-01  1.838176955848E-02
      8 F  13 AL   -3.386585068730E-18  5.954188251948E-17  1.482848971082E-01
      9 F  13 AL   -3.333333333333E-01  3.333333333333E-01 -1.838176955848E-02
     10 F  13 AL   -1.362294587029E-17 -9.267482740351E-17 -1.482848971082E-01

 T = ATOM BELONGING TO THE ASYMMETRIC UNIT

 TOTAL ENERGY(HF)(AU)(   4) -1.4004689919608E+03     DE (AU)   -7.174E-06

 UPDATED TRUST RADIUS     0.400E+01

 SYMMETRY ALLOWED FORCES  (COORDINATE, FORCE)

    1  1.9845129E-04    2  2.5509330E-04    3 -3.0636923E-04    4 -4.4918768E-04

 GRADIENT NORM     0.000633  GRADIENT THRESHOLD     0.500000

 EIGENVALUES OF THE ESTIMATED HESSIAN
  0.1769      0.4681      0.5186      0.6355    

 PREDICTED ENERGY CHANGE    -0.475E-06

 MAX GRADIENT      0.000449  THRESHOLD              0.000450 CONVERGED YES
 RMS GRADIENT      0.000316  THRESHOLD              0.000300 CONVERGED NO
 MAX DISPLAC.      0.001504  THRESHOLD              0.001800 CONVERGED YES
 RMS DISPLAC.      0.000877  THRESHOLD              0.001200 CONVERGED YES
 TTTTTTTTTTTTTTTTTTTTTTTTTTTTTT OPTI        TELAPSE      201.44 TCPU      201.35
 *******************************************************************************
 COORDINATE AND CELL OPTIMIZATION - POINT    8
 *******************************************************************************
 LATTICE PARAMETERS (ANGSTROMS AND DEGREES) - BOHR = 0.5291772083 ANGSTROM
 PRIMITIVE CELL - CENTRING CODE 7/0 VOLUME=    74.118841 - DENSITY  4.568 g/cm^3
         A              B              C           ALPHA      BETA       GAMMA 
     4.88665764     4.88665764     4.88665764    55.616403  55.616403  55.616403
 *******************************************************************************
 ATOMS IN THE ASYMMETRIC UNIT    2 - ATOMS IN THE UNIT CELL:   10
     ATOM                 X/A                 Y/B                 Z/C    
 *******************************************************************************
      1 T   8 O    -4.464713153580E-01 -5.352868464201E-02  2.500000000000E-01
      2 F   8 O     2.500000000000E-01 -4.464713153580E-01 -5.352868464201E-02
      3 F   8 O    -5.352868464201E-02  2.500000000000E-01 -4.464713153580E-01
      4 F   8 O     4.464713153580E-01  5.352868464201E-02 -2.500000000000E-01
      5 F   8 O    -2.500000000000E-01  4.464713153580E-01  5.352868464201E-02
      6 F   8 O     5.352868464201E-02 -2.500000000000E-01  4.464713153580E-01
      7 T  13 AL    3.517118059926E-01  3.517118059926E-01  3.517118059926E-01
      8 F  13 AL    1.482881940074E-01  1.482881940074E-01  1.482881940074E-01
      9 F  13 AL   -3.517118059926E-01 -3.517118059926E-01 -3.517118059926E-01
     10 F  13 AL   -1.482881940074E-01 -1.482881940074E-01 -1.482881940074E-01

 TRANSFORMATION MATRIX PRIMITIVE-CRYSTALLOGRAPHIC CELL
  1.0000  0.0000  1.0000 -1.0000  1.0000  1.0000  0.0000 -1.0000  1.0000

 *******************************************************************************
 CRYSTALLOGRAPHIC CELL (VOLUME=        222.35652164)
         A              B              C           ALPHA      BETA       GAMMA 
     4.55938117     4.55938117    12.35115119    90.000000  90.000000 120.000000

 COORDINATES IN THE CRYSTALLOGRAPHIC CELL
     ATOM                 X/A                 Y/B                 Z/C    
 *******************************************************************************
      1 T   8 O    -3.631379820247E-01 -3.333333333333E-01 -8.333333333333E-02
      2 F   8 O     3.333333333333E-01 -2.980464869133E-02 -8.333333333333E-02
      3 F   8 O     2.980464869133E-02  3.631379820247E-01 -8.333333333333E-02
      4 F   8 O     3.631379820247E-01  3.333333333333E-01  8.333333333333E-02
      5 F   8 O    -3.333333333333E-01  2.980464869133E-02  8.333333333333E-02
      6 F   8 O    -2.980464869133E-02 -3.631379820247E-01  8.333333333333E-02
      7 T  13 AL    3.333333333333E-01 -3.333333333333E-01  1.837847265922E-02
      8 F  13 AL   -3.386585068730E-18  5.954188251948E-17  1.482881940074E-01
      9 F  13 AL   -3.333333333333E-01  3.333333333333E-01 -1.837847265922E-02
     10 F  13 AL   -1.362294587029E-17 -9.267482740351E-17 -1.482881940074E-01

 T = ATOM BELONGING TO THE ASYMMETRIC UNIT

 TOTAL ENERGY(HF)(AU)(   3) -1.4004689924841E+03     DE (AU)   -5.232E-07

 UPDATED TRUST RADIUS     0.400E+01

 SYMMETRY ALLOWED FORCES  (COORDINATE, FORCE)

    1 -5.2923622E-05    2  6.8288770E-05    3 -1.8872164E-05    4 -1.0259473E-04

 GRADIENT NORM     0.000135  GRADIENT THRESHOLD     0.500000

 EIGENVALUES OF THE ESTIMATED HESSIAN
  0.1763      0.4310      0.4785      0.6551    

 PREDICTED ENERGY CHANGE    -0.224E-07

 MAX GRADIENT      0.000103  THRESHOLD              0.000450 CONVERGED YES
 RMS GRADIENT      0.000068  THRESHOLD              0.000300 CONVERGED YES
 MAX DISPLAC.      0.000307  THRESHOLD              0.001800 CONVERGED YES
 RMS DISPLAC.      0.000171  THRESHOLD              0.001200 CONVERGED YES

 CONVERGENCE TESTS SATISFIED AFTER   8 ENERGY AND GRADIENT CALCULATIONS
 +++++++++++++++++++++++++++++++++++++++++++++++++++++++++++++++++++++++++++++++
 FINALRUN OPTION: RE-STARTING OPTIMIZATION
 +++++++++++++++++++++++++++++++++++++++++++++++++++++++++++++++++++++++++++++++
 TTTTTTTTTTTTTTTTTTTTTTTTTTTTTT OPTI        TELAPSE      236.98 TCPU      236.88
 *******************************************************************************
 COORDINATE AND CELL OPTIMIZATION - POINT    9
 *******************************************************************************
 LATTICE PARAMETERS (ANGSTROMS AND DEGREES) - BOHR = 0.5291772083 ANGSTROM
 PRIMITIVE CELL - CENTRING CODE 7/0 VOLUME=    74.117944 - DENSITY  4.568 g/cm^3
         A              B              C           ALPHA      BETA       GAMMA 
     4.88673258     4.88673258     4.88673258    55.614196  55.614196  55.614196
 *******************************************************************************
 ATOMS IN THE ASYMMETRIC UNIT    2 - ATOMS IN THE UNIT CELL:   10
     ATOM                 X/A                 Y/B                 Z/C    
 *******************************************************************************
      1 T   8 O    -4.464752024157E-01 -5.352479758426E-02  2.500000000000E-01
      2 F   8 O     2.500000000000E-01 -4.464752024157E-01 -5.352479758426E-02
      3 F   8 O    -5.352479758426E-02  2.500000000000E-01 -4.464752024157E-01
      4 F   8 O     4.464752024157E-01  5.352479758426E-02 -2.500000000000E-01
      5 F   8 O    -2.500000000000E-01  4.464752024157E-01  5.352479758426E-02
      6 F   8 O     5.352479758426E-02 -2.500000000000E-01  4.464752024157E-01
      7 T  13 AL    3.517141338489E-01  3.517141338489E-01  3.517141338489E-01
      8 F  13 AL    1.482858661511E-01  1.482858661511E-01  1.482858661511E-01
      9 F  13 AL   -3.517141338489E-01 -3.517141338489E-01 -3.517141338489E-01
     10 F  13 AL   -1.482858661511E-01 -1.482858661511E-01 -1.482858661511E-01

 TRANSFORMATION MATRIX PRIMITIVE-CRYSTALLOGRAPHIC CELL
  1.0000  0.0000  1.0000 -1.0000  1.0000  1.0000  0.0000 -1.0000  1.0000

 *******************************************************************************
 CRYSTALLOGRAPHIC CELL (VOLUME=        222.35383144)
         A              B              C           ALPHA      BETA       GAMMA 
     4.55928459     4.55928459    12.35152499    90.000000  90.000000 120.000000

 COORDINATES IN THE CRYSTALLOGRAPHIC CELL
     ATOM                 X/A                 Y/B                 Z/C    
 *******************************************************************************
      1 T   8 O    -3.631418690824E-01 -3.333333333333E-01 -8.333333333333E-02
      2 F   8 O     3.333333333333E-01 -2.980853574907E-02 -8.333333333333E-02
      3 F   8 O     2.980853574907E-02  3.631418690824E-01 -8.333333333333E-02
      4 F   8 O     3.631418690824E-01  3.333333333333E-01  8.333333333333E-02
      5 F   8 O    -3.333333333333E-01  2.980853574907E-02  8.333333333333E-02
      6 F   8 O    -2.980853574907E-02 -3.631418690824E-01  8.333333333333E-02
      7 T  13 AL    3.333333333333E-01 -3.333333333333E-01  1.838080051552E-02
      8 F  13 AL   -3.386585068730E-18  5.954188251948E-17  1.482858661511E-01
      9 F  13 AL   -3.333333333333E-01  3.333333333333E-01 -1.838080051552E-02
     10 F  13 AL   -1.362294587029E-17 -9.267482740351E-17 -1.482858661511E-01

 T = ATOM BELONGING TO THE ASYMMETRIC UNIT

 REFERENCE GEOMETRY WILL BE CHANGED

 TOTAL ENERGY(HF)(AU)(   5) -1.4004693420369E+03     DE (AU)   -3.496E-04

 SYMMETRY ALLOWED FORCES  (COORDINATE, FORCE)

    1  1.6804315E-04    2  6.2145137E-04    3 -2.2858428E-04    4  2.4202533E-04

 GRADIENT NORM     0.000725  GRADIENT THRESHOLD     0.500000

 HESSIAN UPDATE SKIPPED

 EIGENVALUES OF THE ESTIMATED HESSIAN
  0.1763      0.4310      0.4785      0.6551    

 PREDICTED ENERGY CHANGE    -0.862E-06

 MAX GRADIENT      0.000621  THRESHOLD              0.000450 CONVERGED NO
 RMS GRADIENT      0.000362  THRESHOLD              0.000300 CONVERGED NO
 MAX DISPLAC.      0.002075  THRESHOLD              0.001800 CONVERGED NO
 RMS DISPLAC.      0.001386  THRESHOLD              0.001200 CONVERGED NO
 TTTTTTTTTTTTTTTTTTTTTTTTTTTTTT OPTI        TELAPSE      279.78 TCPU      279.68
 *******************************************************************************
 COORDINATE AND CELL OPTIMIZATION - POINT   10
 *******************************************************************************
 LATTICE PARAMETERS (ANGSTROMS AND DEGREES) - BOHR = 0.5291772083 ANGSTROM
 PRIMITIVE CELL - CENTRING CODE 7/0 VOLUME=    74.111213 - DENSITY  4.568 g/cm^3
         A              B              C           ALPHA      BETA       GAMMA 
     4.88604827     4.88604827     4.88604827    55.626706  55.626706  55.626706
 *******************************************************************************
 ATOMS IN THE ASYMMETRIC UNIT    2 - ATOMS IN THE UNIT CELL:   10
     ATOM                 X/A                 Y/B                 Z/C    
 *******************************************************************************
      1 T   8 O    -4.464954559692E-01 -5.350454403081E-02  2.500000000000E-01
      2 F   8 O     2.500000000000E-01 -4.464954559692E-01 -5.350454403081E-02
      3 F   8 O    -5.350454403081E-02  2.500000000000E-01 -4.464954559692E-01
      4 F   8 O     4.464954559692E-01  5.350454403081E-02 -2.500000000000E-01
      5 F   8 O    -2.500000000000E-01  4.464954559692E-01  5.350454403081E-02
      6 F   8 O     5.350454403081E-02 -2.500000000000E-01  4.464954559692E-01
      7 T  13 AL    3.517563869484E-01  3.517563869484E-01  3.517563869484E-01
      8 F  13 AL    1.482436130516E-01  1.482436130516E-01  1.482436130516E-01
      9 F  13 AL   -3.517563869484E-01 -3.517563869484E-01 -3.517563869484E-01
     10 F  13 AL   -1.482436130516E-01 -1.482436130516E-01 -1.482436130516E-01

 TRANSFORMATION MATRIX PRIMITIVE-CRYSTALLOGRAPHIC CELL
  1.0000  0.0000  1.0000 -1.0000  1.0000  1.0000  0.0000 -1.0000  1.0000

 *******************************************************************************
 CRYSTALLOGRAPHIC CELL (VOLUME=        222.33363868)
         A              B              C           ALPHA      BETA       GAMMA 
     4.55958974     4.55958974    12.34875028    90.000000  90.000000 120.000000

 COORDINATES IN THE CRYSTALLOGRAPHIC CELL
     ATOM                 X/A                 Y/B                 Z/C    
 *******************************************************************************
      1 T   8 O    -3.631621226359E-01 -3.333333333333E-01 -8.333333333333E-02
      2 F   8 O     3.333333333333E-01 -2.982878930252E-02 -8.333333333333E-02
      3 F   8 O     2.982878930252E-02  3.631621226359E-01 -8.333333333333E-02
      4 F   8 O     3.631621226359E-01  3.333333333333E-01  8.333333333333E-02
      5 F   8 O    -3.333333333333E-01  2.982878930252E-02  8.333333333333E-02
      6 F   8 O    -2.982878930252E-02 -3.631621226359E-01  8.333333333333E-02
      7 T  13 AL    3.333333333333E-01 -3.333333333333E-01  1.842305361506E-02
      8 F  13 AL   -3.386585068730E-18  5.954188251948E-17  1.482436130516E-01
      9 F  13 AL   -3.333333333333E-01  3.333333333333E-01 -1.842305361506E-02
     10 F  13 AL   -1.362294587029E-17 -9.267482740351E-17 -1.482436130516E-01

 T = ATOM BELONGING TO THE ASYMMETRIC UNIT

 TOTAL ENERGY(HF)(AU)(   3) -1.4004693432898E+03     DE (AU)   -1.253E-06

 UPDATED TRUST RADIUS     0.400E+01

 SYMMETRY ALLOWED FORCES  (COORDINATE, FORCE)

    1  1.1975809E-04    2  6.5837489E-05    3 -7.0158664E-05    4  7.1570733E-05

 GRADIENT NORM     0.000169  GRADIENT THRESHOLD     0.500000

 EIGENVALUES OF THE ESTIMATED HESSIAN
  0.1625      0.4450      0.4745      0.5994    

 PREDICTED ENERGY CHANGE    -0.349E-07

 MAX GRADIENT      0.000120  THRESHOLD              0.000450 CONVERGED YES
 RMS GRADIENT      0.000085  THRESHOLD              0.000300 CONVERGED YES
 MAX DISPLAC.      0.000367  THRESHOLD              0.001800 CONVERGED YES
 RMS DISPLAC.      0.000245  THRESHOLD              0.001200 CONVERGED YES

 CONVERGENCE TESTS SATISFIED AFTER  10 ENERGY AND GRADIENT CALCULATIONS
 +++++++++++++++++++++++++++++++++++++++++++++++++++++++++++++++++++++++++++++++
 FINALRUN OPTION: RE-STARTING OPTIMIZATION
 +++++++++++++++++++++++++++++++++++++++++++++++++++++++++++++++++++++++++++++++
 TTTTTTTTTTTTTTTTTTTTTTTTTTTTTT OPTI        TELAPSE      314.27 TCPU      314.17
 *******************************************************************************
 COORDINATE AND CELL OPTIMIZATION - POINT   11
 *******************************************************************************
 LATTICE PARAMETERS (ANGSTROMS AND DEGREES) - BOHR = 0.5291772083 ANGSTROM
 PRIMITIVE CELL - CENTRING CODE 7/0 VOLUME=    74.108588 - DENSITY  4.569 g/cm^3
         A              B              C           ALPHA      BETA       GAMMA 
     4.88587742     4.88587742     4.88587742    55.629347  55.629347  55.629347
 *******************************************************************************
 ATOMS IN THE ASYMMETRIC UNIT    2 - ATOMS IN THE UNIT CELL:   10
     ATOM                 X/A                 Y/B                 Z/C    
 *******************************************************************************
      1 T   8 O    -4.464893459721E-01 -5.351065402790E-02  2.500000000000E-01
      2 F   8 O     2.500000000000E-01 -4.464893459721E-01 -5.351065402790E-02
      3 F   8 O    -5.351065402790E-02  2.500000000000E-01 -4.464893459721E-01
      4 F   8 O     4.464893459721E-01  5.351065402790E-02 -2.500000000000E-01
      5 F   8 O    -2.500000000000E-01  4.464893459721E-01  5.351065402790E-02
      6 F   8 O     5.351065402790E-02 -2.500000000000E-01  4.464893459721E-01
      7 T  13 AL    3.517615846040E-01  3.517615846040E-01  3.517615846040E-01
      8 F  13 AL    1.482384153960E-01  1.482384153960E-01  1.482384153960E-01
      9 F  13 AL   -3.517615846040E-01 -3.517615846040E-01 -3.517615846040E-01
     10 F  13 AL   -1.482384153960E-01 -1.482384153960E-01 -1.482384153960E-01

 TRANSFORMATION MATRIX PRIMITIVE-CRYSTALLOGRAPHIC CELL
  1.0000  0.0000  1.0000 -1.0000  1.0000  1.0000  0.0000 -1.0000  1.0000

 *******************************************************************************
 CRYSTALLOGRAPHIC CELL (VOLUME=        222.32576427)
         A              B              C           ALPHA      BETA       GAMMA 
     4.55962944     4.55962944    12.34809788    90.000000  90.000000 120.000000

 COORDINATES IN THE CRYSTALLOGRAPHIC CELL
     ATOM                 X/A                 Y/B                 Z/C    
 *******************************************************************************
      1 T   8 O    -3.631560126388E-01 -3.333333333333E-01 -8.333333333333E-02
      2 F   8 O     3.333333333333E-01 -2.982267930543E-02 -8.333333333333E-02
      3 F   8 O     2.982267930543E-02  3.631560126388E-01 -8.333333333333E-02
      4 F   8 O     3.631560126388E-01  3.333333333333E-01  8.333333333333E-02
      5 F   8 O    -3.333333333333E-01  2.982267930543E-02  8.333333333333E-02
      6 F   8 O    -2.982267930543E-02 -3.631560126388E-01  8.333333333333E-02
      7 T  13 AL    3.333333333333E-01 -3.333333333333E-01  1.842825127070E-02
      8 F  13 AL   -3.386585068730E-18  5.954188251948E-17  1.482384153960E-01
      9 F  13 AL   -3.333333333333E-01  3.333333333333E-01 -1.842825127070E-02
     10 F  13 AL   -1.362294587029E-17 -9.267482740351E-17 -1.482384153960E-01

 T = ATOM BELONGING TO THE ASYMMETRIC UNIT

 REFERENCE GEOMETRY WILL BE CHANGED

 TOTAL ENERGY(HF)(AU)(   3) -1.4004693434285E+03     DE (AU)   -1.387E-07

 SYMMETRY ALLOWED FORCES  (COORDINATE, FORCE)

    1  4.0180371E-05    2  1.7373784E-05    3 -1.6750851E-05    4  2.1241512E-05

 GRADIENT NORM     0.000051  GRADIENT THRESHOLD     0.500000

 HESSIAN UPDATE SKIPPED

 EIGENVALUES OF THE ESTIMATED HESSIAN
  0.1625      0.4450      0.4745      0.5994    

 PREDICTED ENERGY CHANGE    -0.297E-08

 MAX GRADIENT      0.000040  THRESHOLD              0.000450 CONVERGED YES
 RMS GRADIENT      0.000026  THRESHOLD              0.000300 CONVERGED YES
 MAX DISPLAC.      0.000102  THRESHOLD              0.001800 CONVERGED YES
 RMS DISPLAC.      0.000068  THRESHOLD              0.001200 CONVERGED YES

 CONVERGENCE TESTS SATISFIED AFTER  11 ENERGY AND GRADIENT CALCULATIONS

 ******************************************************************
 * OPT END - CONVERGED * E(AU):  -1.400469343429E+03  POINTS   11 *
 ******************************************************************

   BAND GAP:                     18.4097  eV 

 EIGENVECTORS IN FORTRAN UNIT  8

 NEIGHBORS OF THE NON-EQUIVALENT ATOMS

 N = NUMBER OF NEIGHBORS AT DISTANCE R
    ATOM  N     R/ANG      R/AU   NEIGHBORS (ATOM LABELS AND CELL INDICES)
   1 O    2     1.7826     3.3685    9 AL   0 0 0   10 AL   0 0 0
   1 O    2     1.8693     3.5324    7 AL   0 0 0    8 AL  -1 0 0
   1 O    2     2.3970     4.5296    2 O   -1 1 0    3 O   -1 0 1
   1 O    2     2.4912     4.7077    4 O   -1 0 1    4 O   -1 0 0
   1 O    4     2.6020     4.9171    5 O    0 0 0    5 O    0-1 0    6 O    0 0 0
                                     6 O   -1 0 0
   1 O    4     2.7578     5.2115    2 O    0 0 0    2 O   -1 0 1    3 O    0 0 0
                                     3 O    0-1 1

   7 AL   3     1.7826     3.3685    4 O   -1 0 1    5 O    0 0 0    6 O   -1 1 0
   7 AL   3     1.8693     3.5324    1 O    0 0 0    2 O   -1 1 0    3 O   -1 0 1
   7 AL   1     2.5131     4.7491    8 AL  -1 0 0
   7 AL   3     2.6716     5.0485    9 AL   0 0 0    9 AL  -1 1 0    9 AL   0 1-1
   7 AL   3     3.0802     5.8207    4 O   -1 1 0    5 O   -1 0 1    6 O    0 0 0
   7 AL   3     3.0821     5.8243    8 AL   0 0 0    8 AL  -1 0 1    8 AL  -1 1 0


 FINAL OPTIMIZED GEOMETRY - DIMENSIONALITY OF THE SYSTEM      3
 (NON PERIODIC DIRECTION: LATTICE PARAMETER FORMALLY SET TO 500)
 *******************************************************************************
 LATTICE PARAMETERS (ANGSTROMS AND DEGREES) - BOHR = 0.5291772083 ANGSTROM
 PRIMITIVE CELL - CENTRING CODE 7/0 VOLUME=    74.108588 - DENSITY  4.569 g/cm^3
         A              B              C           ALPHA      BETA       GAMMA 
     4.88587742     4.88587742     4.88587742    55.629347  55.629347  55.629347
 *******************************************************************************
 ATOMS IN THE ASYMMETRIC UNIT    2 - ATOMS IN THE UNIT CELL:   10
     ATOM                 X/A                 Y/B                 Z/C    
 *******************************************************************************
      1 T   8 O    -4.464893459721E-01 -5.351065402790E-02  2.500000000000E-01
      2 F   8 O     2.500000000000E-01 -4.464893459721E-01 -5.351065402790E-02
      3 F   8 O    -5.351065402790E-02  2.500000000000E-01 -4.464893459721E-01
      4 F   8 O     4.464893459721E-01  5.351065402790E-02 -2.500000000000E-01
      5 F   8 O    -2.500000000000E-01  4.464893459721E-01  5.351065402790E-02
      6 F   8 O     5.351065402790E-02 -2.500000000000E-01  4.464893459721E-01
      7 T  13 AL    3.517615846040E-01  3.517615846040E-01  3.517615846040E-01
      8 F  13 AL    1.482384153960E-01  1.482384153960E-01  1.482384153960E-01
      9 F  13 AL   -3.517615846040E-01 -3.517615846040E-01 -3.517615846040E-01
     10 F  13 AL   -1.482384153960E-01 -1.482384153960E-01 -1.482384153960E-01

 TRANSFORMATION MATRIX PRIMITIVE-CRYSTALLOGRAPHIC CELL
  1.0000  0.0000  1.0000 -1.0000  1.0000  1.0000  0.0000 -1.0000  1.0000

 *******************************************************************************
 CRYSTALLOGRAPHIC CELL (VOLUME=        222.32576427)
         A              B              C           ALPHA      BETA       GAMMA 
     4.55962944     4.55962944    12.34809788    90.000000  90.000000 120.000000

 COORDINATES IN THE CRYSTALLOGRAPHIC CELL
     ATOM                 X/A                 Y/B                 Z/C    
 *******************************************************************************
      1 T   8 O    -3.631560126388E-01 -3.333333333333E-01 -8.333333333333E-02
      2 F   8 O     3.333333333333E-01 -2.982267930543E-02 -8.333333333333E-02
      3 F   8 O     2.982267930543E-02  3.631560126388E-01 -8.333333333333E-02
      4 F   8 O     3.631560126388E-01  3.333333333333E-01  8.333333333333E-02
      5 F   8 O    -3.333333333333E-01  2.982267930543E-02  8.333333333333E-02
      6 F   8 O    -2.982267930543E-02 -3.631560126388E-01  8.333333333333E-02
      7 T  13 AL    3.333333333333E-01 -3.333333333333E-01  1.842825127070E-02
      8 F  13 AL   -3.386585068730E-18  5.954188251948E-17  1.482384153960E-01
      9 F  13 AL   -3.333333333333E-01  3.333333333333E-01 -1.842825127070E-02
     10 F  13 AL   -1.362294587029E-17 -9.267482740351E-17 -1.482384153960E-01

 T = ATOM BELONGING TO THE ASYMMETRIC UNIT
 INFORMATION **** fort.34 **** GEOMETRY OUTPUT FILE

 DIRECT LATTICE VECTORS CARTESIAN COMPONENTS (ANGSTROM)
          X                    Y                    Z
   0.263250328620E+01  -0.134738340490E-16   0.411603262821E+01
  -0.131625164310E+01   0.227981472140E+01   0.411603262821E+01
  -0.131625164310E+01  -0.227981472140E+01   0.411603262821E+01


 CARTESIAN COORDINATES - PRIMITIVE CELL
 *******************************************************************************
 *      ATOM          X(ANGSTROM)         Y(ANGSTROM)         Z(ANGSTROM)
 *******************************************************************************
    1     8 O    -1.434014095013E+00 -6.919480571536E-01 -1.029008157053E+00
    2     8 O     1.316251643101E+00 -8.959186070896E-01 -1.029008157053E+00
    3     8 O     1.177624519123E-01  1.587866664243E+00 -1.029008157053E+00
    4     8 O     1.434014095013E+00  6.919480571536E-01  1.029008157053E+00
    5     8 O    -1.316251643101E+00  8.959186070896E-01  1.029008157053E+00
    6     8 O    -1.177624519123E-01 -1.587866664243E+00  1.029008157053E+00
    7    13 AL   -2.632503286202E+00  4.443536697854E-17  2.275538505332E-01
    8    13 AL   -1.337279448365E-17  2.792097071101E-16  1.830462463572E+00
    9    13 AL   -1.316251643101E+00 -2.279814721397E+00 -2.275538505332E-01
   10    13 AL   -5.379367465692E-17 -3.915050790910E-16 -1.830462463572E+00

 ****   12 SYMMOPS - TRANSLATORS IN FRACTIONAL UNITS
 **** MATRICES AND TRANSLATORS IN THE CRYSTALLOGRAPHIC REFERENCE FRAME
   V INV                    ROTATION MATRICES                   TRANSLATORS
   1   1  1.00  0.00  0.00  0.00  1.00  0.00  0.00  0.00  1.00  0.00  0.00  0.00
   2   3 -0.00  0.00  1.00  1.00 -0.00 -0.00 -0.00  1.00 -0.00  0.00  0.00  0.00
   3   2 -0.00  1.00  0.00 -0.00  0.00  1.00  1.00 -0.00  0.00  0.00  0.00  0.00
   4   4  0.00 -1.00 -0.00 -1.00  0.00  0.00  0.00  0.00 -1.00  0.50  0.50  0.50
   5   5 -1.00  0.00  0.00  0.00 -0.00 -1.00  0.00 -1.00 -0.00  0.50  0.50  0.50
   6   6  0.00 -0.00 -1.00  0.00 -1.00 -0.00 -1.00 -0.00  0.00  0.50  0.50  0.50
   7   7 -1.00  0.00  0.00  0.00 -1.00 -0.00  0.00 -0.00 -1.00  0.00  0.00  0.00
   8   9  0.00 -0.00 -1.00 -1.00  0.00  0.00  0.00 -1.00  0.00  0.00  0.00  0.00
   9   8  0.00 -1.00 -0.00  0.00 -0.00 -1.00 -1.00  0.00 -0.00  0.00  0.00  0.00
  10  10 -0.00  1.00  0.00  1.00 -0.00 -0.00 -0.00 -0.00  1.00  0.50  0.50  0.50
  11  11  1.00 -0.00 -0.00 -0.00  0.00  1.00 -0.00  1.00  0.00  0.50  0.50  0.50
  12  12 -0.00  0.00  1.00 -0.00  1.00  0.00  1.00  0.00 -0.00  0.50  0.50  0.50
 TTTTTTTTTTTTTTTTTTTTTTTTTTTTTT END         TELAPSE      348.79 TCPU      348.69
 EEEEEEEEEE TERMINATION  DATE 04 08 2023 TIME 11:15:06.4
