Siesta Version: siesta-4.0b-485
Architecture  : x86_64-unknown-linux-gnu--Intel
Compiler flags: mpifc -g
PP flags      : -DMPI -DFC_HAVE_FLUSH -DFC_HAVE_ABORT 
PARALLEL version

* Running on   48 nodes in parallel
>> Start of run:  12-SEP-2019  10:57:50

                           ***********************       
                           *  WELCOME TO SIESTA  *       
                           ***********************       

reinit: Reading from standard input
************************** Dump of input data file ****************************
SystemName          nanotube (7,7)
SystemLabel         C112
NumberOfAtoms       116
NumberOfSpecies     2
WriteMullikenPop    1
%block ChemicalSpeciesLabel
 1  3  Li      # Species index, atomic number, species label
 2  6  C
%endblock ChemicalSpeciesLabel
#PAO.BasisSize  DZP
PAO.EnergyShift  0.05 eV
PAO.SplitNorm  0.59
MeshCutoff       200.0 Ry
#kgrid_cutoff     5.0 Bohr
%block kgrid_Monkhorst_Pack
  1  0  0   0.5
  0  1  0   0.5
  0  0  32  0.5
%endblock kgrid_Monkhorst_Pack
Spinpolarized  true
MaxSCFIterations       150
Diag.ParallelOverK   .true.
SolutionMethod         diagon
NetCharge     0.00
DM.NumberPulay    4
DM.MixingWeight   0.3
DM.UseSaveDM      .true.
NeglNonOverlapInt False
AtomicCoordinatesFormat  NotScaledCartesianAng
#AtomicCoordinatesAndAtomicSpecies < nano.xyz
XC.functional=LDA
XC.authors=CA
ZM.UnitsLength = Ang
%block Zmatrix
cartesian
  2   3.137397   3.661648   0.052959  1  1  1
  2  -1.249583  -4.587907   0.054318  1  1  1
  2   4.634691   1.287304   0.055029  1  1  1
  2   4.776105  -0.121944   0.055390  1  1  1
  2   3.814377  -2.760325   0.053979  1  1  1
  2   0.161401  -4.706793   0.052993  1  1  1
  2  -3.667816  -3.164349   0.053751  1  1  1
  2   1.923168   4.396184   0.052797  1  1  1
  2  -4.426651  -1.967394   0.053343  1  1  1
  2   2.808454  -3.756928   0.052540  1  1  1
  2  -0.877622   4.632071   0.054560  1  1  1
  2  -4.688843   0.826637   0.052820  1  1  1
  2  -2.206623   4.140619   0.054471  1  1  1
  2  -4.193948   2.153557   0.052729  1  1  1
  1   0.966439  -2.139839   2.538931  1  1  1
  2  -3.151057  -3.656675   1.276025  1  1  1
  2   4.404998   1.963928   1.276476  1  1  1
  2   2.209854  -4.149082   1.275399  1  1  1
  2  -4.651524  -1.290365   1.276244  1  1  1
  2  -4.782520   0.119503   1.275069  1  1  1
  2   3.657586   3.169370   1.276422  1  1  1
  2  -3.811584   2.757312   1.273968  1  1  1
  2   4.199041  -2.160056   1.277460  1  1  1
  2  -1.930081  -4.373560   1.275660  1  1  1
  2   4.685277  -0.829517   1.277783  1  1  1
  2   1.246041   4.628761   1.277602  1  1  1
  2  -2.809007   3.757835   1.276256  1  1  1
  2  -0.170319   4.730041   1.277953  1  1  1
  2   0.871410  -4.619586   1.275502  1  1  1
  1   1.200426   2.129879   1.549124  1  1  1
  2   3.815361  -2.761632   2.500428  1  1  1
  2   2.822262  -3.775399   2.500287  1  1  1
  2  -3.664100  -3.161607   2.498892  1  1  1
  2   3.142356   3.667152   2.500419  1  1  1
  2  -4.421876  -1.965684   2.499263  1  1  1
  2  -1.249212  -4.585603   2.498570  1  1  1
  2  -4.690608   0.829404   2.498108  1  1  1
  2   4.640593   1.288783   2.498139  1  1  1
  2   0.162277  -4.713336   2.499280  1  1  1
  2  -2.207716   4.143687   2.498673  1  1  1
  2  -4.211284   2.164087   2.497293  1  1  1
  2   1.927564   4.402129   2.502033  1  1  1
  2  -0.877445   4.628844   2.500517  1  1  1
  2   4.778606  -0.120694   2.498788  1  1  1
  2   2.208212  -4.147313   3.724775  1  1  1
  2  -1.929939  -4.375083   3.722082  1  1  1
  2   4.198886  -2.158062   3.723509  1  1  1
  2  -3.149883  -3.656263   3.721957  1  1  1
  2   4.687413  -0.828502   3.722096  1  1  1
  2   0.871692  -4.621369   3.724109  1  1  1
  2   4.431874   1.974075   3.721487  1  1  1
  2   3.656266   3.162845   3.723314  1  1  1
  2  -4.647206  -1.289346   3.722406  1  1  1
  2  -4.781954   0.120678   3.722150  1  1  1
  2   1.238168   4.599982   3.724435  1  1  1
  2  -0.171786   4.727314   3.723100  1  1  1
  2  -3.835019   2.776725   3.722159  1  1  1
  2  -2.815753   3.766840   3.721952  1  1  1
  1   2.272641   0.901589   4.521391  1  1  1
  2  -1.249199  -4.588851   4.945508  1  1  1
  2  -3.663876  -3.161734   4.944913  1  1  1
  2   3.815312  -2.760363   4.945768  1  1  1
  2   2.806174  -3.754444   4.947374  1  1  1
  2   3.140524   3.659781   4.946140  1  1  1
  2   0.161508  -4.708065   4.946835  1  1  1
  2  -4.421023  -1.965353   4.944729  1  1  1
  2   1.918130   4.378113   4.945781  1  1  1
  2  -2.210612   4.146980   4.945095  1  1  1
  2  -4.207925   2.163421   4.946575  1  1  1
  2   4.672717   1.296977   4.945442  1  1  1
  2  -0.880090   4.633383   4.944497  1  1  1
  2  -4.687527   0.829095   4.945538  1  1  1
  2   4.790880  -0.120124   4.945094  1  1  1
  2   1.238048   4.598057   6.167237  1  1  1
  2   2.199683  -4.131894   6.168624  1  1  1
  2  -0.172490   4.726194   6.166720  1  1  1
  2   4.691563  -0.829593   6.167856  1  1  1
  2   0.868124  -4.614523   6.168734  1  1  1
  2  -4.780594   0.120041   6.167633  1  1  1
  2  -4.651560  -1.290710   6.166592  1  1  1
  2  -3.813387   2.759652   6.169308  1  1  1
  2  -1.931489  -4.377723   6.167941  1  1  1
  2  -3.152361  -3.658856   6.167262  1  1  1
  2  -2.810783   3.760573   6.168318  1  1  1
  2   3.650233   3.158284   6.168587  1  1  1
  2   4.418986   1.966905   6.169582  1  1  1
  2   4.200926  -2.159240   6.167359  1  1  1
  1  -2.025774   1.162703   3.470733  1  1  1
  2   4.784655  -0.122451   7.391467  1  1  1
  2   0.160532  -4.709505   7.390082  1  1  1
  2   4.642228   1.287606   7.391708  1  1  1
  2  -0.879139   4.634695   7.389465  1  1  1
  2   1.917946   4.382212   7.389226  1  1  1
  2  -1.250915  -4.591353   7.390492  1  1  1
  2  -4.426023  -1.967818   7.388934  1  1  1
  2  -4.688379   0.827583   7.389551  1  1  1
  2   3.132122   3.652807   7.390260  1  1  1
  2   3.814979  -2.759723   7.390792  1  1  1
  2  -2.209266   4.145438   7.389988  1  1  1
  2  -3.667962  -3.164750   7.389512  1  1  1
  2  -4.195905   2.155702   7.390371  1  1  1
  2   2.805556  -3.753201   7.390234  1  1  1
  2   4.404638   1.961958   8.613311  1  1  1
  2   4.691341  -0.830775   8.613207  1  1  1
  2   2.201142  -4.134402   8.611722  1  1  1
  2   4.203428  -2.161249   8.612732  1  1  1
  2   3.644395   3.156601   8.611764  1  1  1
  2  -1.931818  -4.376852   8.612724  1  1  1
  2   1.239344   4.605874   8.610930  1  1  1
  2   0.868427  -4.614837   8.611673  1  1  1
  2  -3.153794  -3.659707   8.612114  1  1  1
  2  -0.171799   4.731158   8.611706  1  1  1
  2  -4.655141  -1.291416   8.611236  1  1  1
  2  -4.785688   0.119662   8.611393  1  1  1
  2  -3.809668   2.755699   8.611786  1  1  1
  2  -2.808835   3.757761   8.611945  1  1  1
%endblock Zmatrix
LatticeConstant       97.8061228574  Ang
%block LatticeParameters
  1.0 1.0 0.1 90. 90. 90.   #14.8921728
%endblock LatticeParameters
WriteCoorXmol     True
WriteForces .true.
WriteMullikenPop     1
SaveRho                  .true.
SaveBaderCharge   .true.
WriteHirshfeldPop   .true.
WriteVoronoiPop  .true.
%block ProjectedDensityOfStates
   -24.00  15.00  0.100  1000  eV
%endblock ProjectedDensityOfStates
MD.TypeOfRun           cg               # Type of dynamics: Conjugate gradients
MD.NumCGsteps          320              # number of CG steps
MD.MaxCGDispl          0.15 Ang
MD.MaxForceTol         0.04 eV/Ang
MD.UseSaveXV           yes
MD.VariableCell        .false.
************************** End of input data file *****************************

reinit: -----------------------------------------------------------------------
reinit: System Name: nanotube (7,7
reinit: -----------------------------------------------------------------------
reinit: System Label: C112                                                        
reinit: -----------------------------------------------------------------------

initatom: Reading input for the pseudopotentials and atomic orbitals ----------
 Species number:            1  Label: Li Atomic number:           3
 Species number:            2  Label: C Atomic number:           6
Ground state valence configuration:   2s01
Reading pseudopotential information in formatted form from Li.psf

Valence configuration for pseudopotential generation:
2s( 1.00) rc: 2.28
2p( 0.00) rc: 2.28
3d( 0.00) rc: 2.59
4f( 0.00) rc: 2.59
Ground state valence configuration:   2s02  2p02
Reading pseudopotential information in formatted form from C.psf

Valence configuration for pseudopotential generation:
2s( 2.00) rc: 1.25
2p( 2.00) rc: 1.25
3d( 0.00) rc: 1.25
4f( 0.00) rc: 1.25
For Li, standard SIESTA heuristics set lmxkb to 2
 (one more than the basis l, including polarization orbitals).
Use PS.lmax or PS.KBprojectors blocks to override.
For C, standard SIESTA heuristics set lmxkb to 3
 (one more than the basis l, including polarization orbitals).
Use PS.lmax or PS.KBprojectors blocks to override.

<basis_specs>
===============================================================================
Li                   Z=   3    Mass=  6.9400        Charge= 0.17977+309
Lmxo=0 Lmxkb= 2    BasisType=split      Semic=F
L=0  Nsemic=0  Cnfigmx=2
          n=1  nzeta=2  polorb=1
            splnorm:   0.59000    
               vcte:    0.0000    
               rinn:    0.0000    
               qcoe:    0.0000    
               qyuk:    0.0000    
               qwid:   0.10000E-01
                rcs:    0.0000      0.0000    
            lambdas:    1.0000      1.0000    
-------------------------------------------------------------------------------
L=0  Nkbl=1  erefs: 0.17977+309
L=1  Nkbl=1  erefs: 0.17977+309
L=2  Nkbl=1  erefs: 0.17977+309
===============================================================================
</basis_specs>

atom: Called for Li                    (Z =   3)

read_vps: Pseudopotential generation method:
read_vps: ATM 3.2.2 Troullier-Martins                       
Total valence charge:    1.00000

read_vps: Pseudopotential includes a core correction:
read_vps: Pseudo-core for xc-correction

xc_check: Exchange-correlation functional:
xc_check: Ceperley-Alder
V l=0 = -2*Zval/r beyond r=  2.2278
V l=1 = -2*Zval/r beyond r=  2.2278
V l=2 = -2*Zval/r beyond r=  2.5245
All V_l potentials equal beyond r=  2.4932
This should be close to max(r_c) in ps generation
All pots = -2*Zval/r beyond r=  2.5245

VLOCAL1: 99.0% of the norm of Vloc inside      6.983 Ry
VLOCAL1: 99.9% of the norm of Vloc inside     15.915 Ry
atom: Maximum radius for 4*pi*r*r*local-pseudopot. charge    2.89679
atom: Maximum radius for r*vlocal+2*Zval:    2.46219
GHOST: No ghost state for L =  0
GHOST: No ghost state for L =  1
GHOST: No ghost state for L =  2

KBgen: Kleinman-Bylander projectors: 
   l= 0   rc=  2.687416   el= -0.211535   Ekb=  1.687927   kbcos=  0.233983
   l= 1   rc=  2.755470   el= -0.083009   Ekb= -1.097314   kbcos= -0.153392
   l= 2   rc=  2.860793   el=  0.002356   Ekb= -0.211588   kbcos= -0.031024

KBgen: Total number of  Kleinman-Bylander projectors:    9
atom: -------------------------------------------------------------------------

atom: SANKEY-TYPE ORBITALS:
atom: Selected multiple-zeta basis: split     

SPLIT: Orbitals with angular momentum L= 0

SPLIT: Basis orbitals for state 2s

SPLIT: PAO cut-off radius determined from an
SPLIT: energy shift=  0.003675 Ry

   izeta = 1
                 lambda =    1.000000
                     rc =    9.987207
                 energy =   -0.208154
                kinetic =    0.151718
    potential(screened) =   -0.359872
       potential(ionic) =   -0.537364

   izeta = 2
                 rmatch =    5.761768
              splitnorm =    0.590000
                 energy =   -0.011018
                kinetic =    0.491809
    potential(screened) =   -0.502827
       potential(ionic) =   -0.688445

POLgen: Perturbative polarization orbital with L=  1

POLgen: Polarization orbital for state 2s

   izeta = 1
                     rc =    9.987207
                 energy =   -0.016884
                kinetic =    0.305445
    potential(screened) =   -0.322329
       potential(ionic) =   -0.502117
atom: Total number of Sankey-type orbitals:  5

atm_pop: Valence configuration (for local Pseudopot. screening):
 2s( 1.00)                                                            
Vna: chval, zval:    1.00000   1.00000

Vna:  Cut-off radius for the neutral-atom potential:   9.987207
comcore: Pseudo-core radius Rcore=  3.494364

atom: _________________________________________________________________________

<basis_specs>
===============================================================================
C                    Z=   6    Mass=  12.010        Charge= 0.17977+309
Lmxo=1 Lmxkb= 3    BasisType=split      Semic=F
L=0  Nsemic=0  Cnfigmx=2
          n=1  nzeta=2  polorb=0
            splnorm:   0.59000    
               vcte:    0.0000    
               rinn:    0.0000    
               qcoe:    0.0000    
               qyuk:    0.0000    
               qwid:   0.10000E-01
                rcs:    0.0000      0.0000    
            lambdas:    1.0000      1.0000    
L=1  Nsemic=0  Cnfigmx=2
          n=1  nzeta=2  polorb=1
            splnorm:   0.59000    
               vcte:    0.0000    
               rinn:    0.0000    
               qcoe:    0.0000    
               qyuk:    0.0000    
               qwid:   0.10000E-01
                rcs:    0.0000      0.0000    
            lambdas:    1.0000      1.0000    
-------------------------------------------------------------------------------
L=0  Nkbl=1  erefs: 0.17977+309
L=1  Nkbl=1  erefs: 0.17977+309
L=2  Nkbl=1  erefs: 0.17977+309
L=3  Nkbl=1  erefs: 0.17977+309
===============================================================================
</basis_specs>

atom: Called for C                     (Z =   6)

read_vps: Pseudopotential generation method:
read_vps: ATM3      Troullier-Martins                       
Total valence charge:    4.00000

xc_check: Exchange-correlation functional:
xc_check: Ceperley-Alder
V l=0 = -2*Zval/r beyond r=  1.3951
V l=1 = -2*Zval/r beyond r=  1.3777
V l=2 = -2*Zval/r beyond r=  1.3777
V l=3 = -2*Zval/r beyond r=  1.3777
All V_l potentials equal beyond r=  1.2311
This should be close to max(r_c) in ps generation
All pots = -2*Zval/r beyond r=  1.3951

VLOCAL1: 99.0% of the norm of Vloc inside     28.641 Ry
VLOCAL1: 99.9% of the norm of Vloc inside     65.273 Ry
atom: Maximum radius for 4*pi*r*r*local-pseudopot. charge    1.48507
atom: Maximum radius for r*vlocal+2*Zval:    1.27815
GHOST: No ghost state for L =  0
GHOST: No ghost state for L =  1
GHOST: No ghost state for L =  2
GHOST: No ghost state for L =  3

KBgen: Kleinman-Bylander projectors: 
   l= 0   rc=  1.600766   el= -1.001946   Ekb=  7.816946   kbcos=  0.279978
   l= 1   rc=  1.620907   el= -0.398597   Ekb= -4.829535   kbcos= -0.287433
   l= 2   rc=  1.836783   el=  0.002326   Ekb= -1.327964   kbcos= -0.005365
   l= 3   rc=  1.979871   el=  0.003420   Ekb= -0.522285   kbcos= -0.000569

KBgen: Total number of  Kleinman-Bylander projectors:   16
atom: -------------------------------------------------------------------------

atom: SANKEY-TYPE ORBITALS:
atom: Selected multiple-zeta basis: split     

SPLIT: Orbitals with angular momentum L= 0

SPLIT: Basis orbitals for state 2s

SPLIT: PAO cut-off radius determined from an
SPLIT: energy shift=  0.003675 Ry

   izeta = 1
                 lambda =    1.000000
                     rc =    5.120028
                 energy =   -0.998772
                kinetic =    0.858242
    potential(screened) =   -1.857014
       potential(ionic) =   -5.418547

   izeta = 2
                 rmatch =    2.300349
              splitnorm =    0.590000
                 energy =    0.102977
                kinetic =    2.861156
    potential(screened) =   -2.758179
       potential(ionic) =   -6.824757

SPLIT: Orbitals with angular momentum L= 1

SPLIT: Basis orbitals for state 2p

SPLIT: PAO cut-off radius determined from an
SPLIT: energy shift=  0.003675 Ry

   izeta = 1
                 lambda =    1.000000
                     rc =    6.253707
                 energy =   -0.395142
                kinetic =    2.439321
    potential(screened) =   -2.834463
       potential(ionic) =   -6.264070

   izeta = 2
                 rmatch =    2.030003
              splitnorm =    0.590000
                 energy =    0.951237
                kinetic =    7.827527
    potential(screened) =   -6.876290
       potential(ionic) =  -11.218295

POLgen: Perturbative polarization orbital with L=  2

POLgen: Polarization orbital for state 2p

   izeta = 1
                     rc =    6.253707
                 energy =    1.009535
                kinetic =    2.120051
    potential(screened) =   -1.110516
       potential(ionic) =   -3.842863
atom: Total number of Sankey-type orbitals: 13

atm_pop: Valence configuration (for local Pseudopot. screening):
 2s( 2.00)                                                            
 2p( 2.00)                                                            
Vna: chval, zval:    4.00000   4.00000

Vna:  Cut-off radius for the neutral-atom potential:   6.253707

atom: _________________________________________________________________________

prinput: Basis input ----------------------------------------------------------

PAO.BasisType split     

%block ChemicalSpeciesLabel
    1    3 Li                      # Species index, atomic number, species label
    2    6 C                       # Species index, atomic number, species label
%endblock ChemicalSpeciesLabel

%block PAO.Basis                 # Define Basis set
Li                    1                    # Species label, number of l-shells
 n=2   0   2 P   1                   # n, l, Nzeta, Polarization, NzetaPol
   9.987      5.762   
   1.000      1.000   
C                     2                    # Species label, number of l-shells
 n=2   0   2                         # n, l, Nzeta 
   5.120      2.300   
   1.000      1.000   
 n=2   1   2 P   1                   # n, l, Nzeta, Polarization, NzetaPol
   6.254      2.030   
   1.000      1.000   
%endblock PAO.Basis

prinput: ----------------------------------------------------------------------

coor:   Atomic-coordinates input format  =     Cartesian coordinates
coor:                                          (in Angstroms)
read_Zmatrix: Length units: Ang       
read_Zmatrix: Angle  units: rad       
read_Zmatrix: Force tolerances:
read_Zmatrix:    for lengths =     0.001556 Ry/Bohr
read_Zmatrix:    for angles  =     0.003565 Ry/rad

read_Zmatrix: Maximum displacements:
read_Zmatrix:    for lengths =     0.200000 Bohr
read_Zmatrix:    for angles  =     0.003000 rad
%block Zmatrix
cartesian
  2   3.137397   3.661648   0.052959  1  1  1
  2  -1.249583  -4.587907   0.054318  1  1  1
  2   4.634691   1.287304   0.055029  1  1  1
  2   4.776105  -0.121944   0.055390  1  1  1
  2   3.814377  -2.760325   0.053979  1  1  1
  2   0.161401  -4.706793   0.052993  1  1  1
  2  -3.667816  -3.164349   0.053751  1  1  1
  2   1.923168   4.396184   0.052797  1  1  1
  2  -4.426651  -1.967394   0.053343  1  1  1
  2   2.808454  -3.756928   0.052540  1  1  1
  2  -0.877622   4.632071   0.054560  1  1  1
  2  -4.688843   0.826637   0.052820  1  1  1
  2  -2.206623   4.140619   0.054471  1  1  1
  2  -4.193948   2.153557   0.052729  1  1  1
  1   0.966439  -2.139839   2.538931  1  1  1
  2  -3.151057  -3.656675   1.276025  1  1  1
  2   4.404998   1.963928   1.276476  1  1  1
  2   2.209854  -4.149082   1.275399  1  1  1
  2  -4.651524  -1.290365   1.276244  1  1  1
  2  -4.782520   0.119503   1.275069  1  1  1
  2   3.657586   3.169370   1.276422  1  1  1
  2  -3.811584   2.757312   1.273968  1  1  1
  2   4.199041  -2.160056   1.277460  1  1  1
  2  -1.930081  -4.373560   1.275660  1  1  1
  2   4.685277  -0.829517   1.277783  1  1  1
  2   1.246041   4.628761   1.277602  1  1  1
  2  -2.809007   3.757835   1.276256  1  1  1
  2  -0.170319   4.730041   1.277953  1  1  1
  2   0.871410  -4.619586   1.275502  1  1  1
  1   1.200426   2.129879   1.549124  1  1  1
  2   3.815361  -2.761632   2.500428  1  1  1
  2   2.822262  -3.775399   2.500287  1  1  1
  2  -3.664100  -3.161607   2.498892  1  1  1
  2   3.142356   3.667152   2.500419  1  1  1
  2  -4.421876  -1.965684   2.499263  1  1  1
  2  -1.249212  -4.585603   2.498570  1  1  1
  2  -4.690608   0.829404   2.498108  1  1  1
  2   4.640593   1.288783   2.498139  1  1  1
  2   0.162277  -4.713336   2.499280  1  1  1
  2  -2.207716   4.143687   2.498673  1  1  1
  2  -4.211284   2.164087   2.497293  1  1  1
  2   1.927564   4.402129   2.502033  1  1  1
  2  -0.877445   4.628844   2.500517  1  1  1
  2   4.778606  -0.120694   2.498788  1  1  1
  2   2.208212  -4.147313   3.724775  1  1  1
  2  -1.929939  -4.375083   3.722082  1  1  1
  2   4.198886  -2.158062   3.723509  1  1  1
  2  -3.149883  -3.656263   3.721957  1  1  1
  2   4.687413  -0.828502   3.722096  1  1  1
  2   0.871692  -4.621369   3.724109  1  1  1
  2   4.431874   1.974075   3.721487  1  1  1
  2   3.656266   3.162845   3.723314  1  1  1
  2  -4.647206  -1.289346   3.722406  1  1  1
  2  -4.781954   0.120678   3.722150  1  1  1
  2   1.238168   4.599982   3.724435  1  1  1
  2  -0.171786   4.727314   3.723100  1  1  1
  2  -3.835019   2.776725   3.722159  1  1  1
  2  -2.815753   3.766840   3.721952  1  1  1
  1   2.272641   0.901589   4.521391  1  1  1
  2  -1.249199  -4.588851   4.945508  1  1  1
  2  -3.663876  -3.161734   4.944913  1  1  1
  2   3.815312  -2.760363   4.945768  1  1  1
  2   2.806174  -3.754444   4.947374  1  1  1
  2   3.140524   3.659781   4.946140  1  1  1
  2   0.161508  -4.708065   4.946835  1  1  1
  2  -4.421023  -1.965353   4.944729  1  1  1
  2   1.918130   4.378113   4.945781  1  1  1
  2  -2.210612   4.146980   4.945095  1  1  1
  2  -4.207925   2.163421   4.946575  1  1  1
  2   4.672717   1.296977   4.945442  1  1  1
  2  -0.880090   4.633383   4.944497  1  1  1
  2  -4.687527   0.829095   4.945538  1  1  1
  2   4.790880  -0.120124   4.945094  1  1  1
  2   1.238048   4.598057   6.167237  1  1  1
  2   2.199683  -4.131894   6.168624  1  1  1
  2  -0.172490   4.726194   6.166720  1  1  1
  2   4.691563  -0.829593   6.167856  1  1  1
  2   0.868124  -4.614523   6.168734  1  1  1
  2  -4.780594   0.120041   6.167633  1  1  1
  2  -4.651560  -1.290710   6.166592  1  1  1
  2  -3.813387   2.759652   6.169308  1  1  1
  2  -1.931489  -4.377723   6.167941  1  1  1
  2  -3.152361  -3.658856   6.167262  1  1  1
  2  -2.810783   3.760573   6.168318  1  1  1
  2   3.650233   3.158284   6.168587  1  1  1
  2   4.418986   1.966905   6.169582  1  1  1
  2   4.200926  -2.159240   6.167359  1  1  1
  1  -2.025774   1.162703   3.470733  1  1  1
  2   4.784655  -0.122451   7.391467  1  1  1
  2   0.160532  -4.709505   7.390082  1  1  1
  2   4.642228   1.287606   7.391708  1  1  1
  2  -0.879139   4.634695   7.389465  1  1  1
  2   1.917946   4.382212   7.389226  1  1  1
  2  -1.250915  -4.591353   7.390492  1  1  1
  2  -4.426023  -1.967818   7.388934  1  1  1
  2  -4.688379   0.827583   7.389551  1  1  1
  2   3.132122   3.652807   7.390260  1  1  1
  2   3.814979  -2.759723   7.390792  1  1  1
  2  -2.209266   4.145438   7.389988  1  1  1
  2  -3.667962  -3.164750   7.389512  1  1  1
  2  -4.195905   2.155702   7.390371  1  1  1
  2   2.805556  -3.753201   7.390234  1  1  1
  2   4.404638   1.961958   8.613311  1  1  1
  2   4.691341  -0.830775   8.613207  1  1  1
  2   2.201142  -4.134402   8.611722  1  1  1
  2   4.203428  -2.161249   8.612732  1  1  1
  2   3.644395   3.156601   8.611764  1  1  1
  2  -1.931818  -4.376852   8.612724  1  1  1
  2   1.239344   4.605874   8.610930  1  1  1
  2   0.868427  -4.614837   8.611673  1  1  1
  2  -3.153794  -3.659707   8.612114  1  1  1
  2  -0.171799   4.731158   8.611706  1  1  1
  2  -4.655141  -1.291416   8.611236  1  1  1
  2  -4.785688   0.119662   8.611393  1  1  1
  2  -3.809668   2.755699   8.611786  1  1  1
  2  -2.808835   3.757761   8.611945  1  1  1
%endblock Zmatrix
 nZmol:            0
 nSpecies:            2           2           2           2           2
           2           2           2           2           2           2
           2           2           2           1           2           2
           2           2           2           2           2           2
           2           2           2           2           2           2
           1           2           2           2           2           2
           2           2           2           2           2           2
           2           2           2           2           2           2
           2           2           2           2           2           2
           2           2           2           2           2           1
           2           2           2           2           2           2
           2           2           2           2           2           2
           2           2           2           2           2           2
           2           2           2           2           2           2
           2           2           2           2           1           2
           2           2           2           2           2           2
           2           2           2           2           2           2
           2           2           2           2           2           2
           2           2           2           2           2           2
           2           2           2

zmatrix: Z-matrix coordinates: (Ang ; rad )
zmatrix: (Fractional coordinates have been converted to cartesian)
cartesian block    1 (   116 atoms)
      3.13739700      3.66164800      0.05295900
     -1.24958300     -4.58790700      0.05431800
      4.63469100      1.28730400      0.05502900
      4.77610500     -0.12194400      0.05539000
      3.81437700     -2.76032500      0.05397900
      0.16140100     -4.70679300      0.05299300
     -3.66781600     -3.16434900      0.05375100
      1.92316800      4.39618400      0.05279700
     -4.42665100     -1.96739400      0.05334300
      2.80845400     -3.75692800      0.05254000
     -0.87762200      4.63207100      0.05456000
     -4.68884300      0.82663700      0.05282000
     -2.20662300      4.14061900      0.05447100
     -4.19394800      2.15355700      0.05272900
      0.96643900     -2.13983900      2.53893100
     -3.15105700     -3.65667500      1.27602500
      4.40499800      1.96392800      1.27647600
      2.20985400     -4.14908200      1.27539900
     -4.65152400     -1.29036500      1.27624400
     -4.78252000      0.11950300      1.27506900
      3.65758600      3.16937000      1.27642200
     -3.81158400      2.75731200      1.27396800
      4.19904100     -2.16005600      1.27746000
     -1.93008100     -4.37356000      1.27566000
      4.68527700     -0.82951700      1.27778300
      1.24604100      4.62876100      1.27760200
     -2.80900700      3.75783500      1.27625600
     -0.17031900      4.73004100      1.27795300
      0.87141000     -4.61958600      1.27550200
      1.20042600      2.12987900      1.54912400
      3.81536100     -2.76163200      2.50042800
      2.82226200     -3.77539900      2.50028700
     -3.66410000     -3.16160700      2.49889200
      3.14235600      3.66715200      2.50041900
     -4.42187600     -1.96568400      2.49926300
     -1.24921200     -4.58560300      2.49857000
     -4.69060800      0.82940400      2.49810800
      4.64059300      1.28878300      2.49813900
      0.16227700     -4.71333600      2.49928000
     -2.20771600      4.14368700      2.49867300
     -4.21128400      2.16408700      2.49729300
      1.92756400      4.40212900      2.50203300
     -0.87744500      4.62884400      2.50051700
      4.77860600     -0.12069400      2.49878800
      2.20821200     -4.14731300      3.72477500
     -1.92993900     -4.37508300      3.72208200
      4.19888600     -2.15806200      3.72350900
     -3.14988300     -3.65626300      3.72195700
      4.68741300     -0.82850200      3.72209600
      0.87169200     -4.62136900      3.72410900
      4.43187400      1.97407500      3.72148700
      3.65626600      3.16284500      3.72331400
     -4.64720600     -1.28934600      3.72240600
     -4.78195400      0.12067800      3.72215000
      1.23816800      4.59998200      3.72443500
     -0.17178600      4.72731400      3.72310000
     -3.83501900      2.77672500      3.72215900
     -2.81575300      3.76684000      3.72195200
      2.27264100      0.90158900      4.52139100
     -1.24919900     -4.58885100      4.94550800
     -3.66387600     -3.16173400      4.94491300
      3.81531200     -2.76036300      4.94576800
      2.80617400     -3.75444400      4.94737400
      3.14052400      3.65978100      4.94614000
      0.16150800     -4.70806500      4.94683500
     -4.42102300     -1.96535300      4.94472900
      1.91813000      4.37811300      4.94578100
     -2.21061200      4.14698000      4.94509500
     -4.20792500      2.16342100      4.94657500
      4.67271700      1.29697700      4.94544200
     -0.88009000      4.63338300      4.94449700
     -4.68752700      0.82909500      4.94553800
      4.79088000     -0.12012400      4.94509400
      1.23804800      4.59805700      6.16723700
      2.19968300     -4.13189400      6.16862400
     -0.17249000      4.72619400      6.16672000
      4.69156300     -0.82959300      6.16785600
      0.86812400     -4.61452300      6.16873400
     -4.78059400      0.12004100      6.16763300
     -4.65156000     -1.29071000      6.16659200
     -3.81338700      2.75965200      6.16930800
     -1.93148900     -4.37772300      6.16794100
     -3.15236100     -3.65885600      6.16726200
     -2.81078300      3.76057300      6.16831800
      3.65023300      3.15828400      6.16858700
      4.41898600      1.96690500      6.16958200
      4.20092600     -2.15924000      6.16735900
     -2.02577400      1.16270300      3.47073300
      4.78465500     -0.12245100      7.39146700
      0.16053200     -4.70950500      7.39008200
      4.64222800      1.28760600      7.39170800
     -0.87913900      4.63469500      7.38946500
      1.91794600      4.38221200      7.38922600
     -1.25091500     -4.59135300      7.39049200
     -4.42602300     -1.96781800      7.38893400
     -4.68837900      0.82758300      7.38955100
      3.13212200      3.65280700      7.39026000
      3.81497900     -2.75972300      7.39079200
     -2.20926600      4.14543800      7.38998800
     -3.66796200     -3.16475000      7.38951200
     -4.19590500      2.15570200      7.39037100
      2.80555600     -3.75320100      7.39023400
      4.40463800      1.96195800      8.61331100
      4.69134100     -0.83077500      8.61320700
      2.20114200     -4.13440200      8.61172200
      4.20342800     -2.16124900      8.61273200
      3.64439500      3.15660100      8.61176400
     -1.93181800     -4.37685200      8.61272400
      1.23934400      4.60587400      8.61093000
      0.86842700     -4.61483700      8.61167300
     -3.15379400     -3.65970700      8.61211400
     -0.17179900      4.73115800      8.61170600
     -4.65514100     -1.29141600      8.61123600
     -4.78568800      0.11966200      8.61139300
     -3.80966800      2.75569900      8.61178600
     -2.80883500      3.75776100      8.61194500


Z-matrix Symbol Section -------
Variables
Constants
------------ End of Z-matrix Information


siesta: WARNING: XV file not found

siesta: Atomic coordinates (Bohr) and species
siesta:      5.92882   6.91951   0.10008  2        1
siesta:     -2.36137  -8.66989   0.10265  2        2
siesta:      8.75830   2.43265   0.10399  2        3
siesta:      9.02553  -0.23044   0.10467  2        4
siesta:      7.20813  -5.21626   0.10201  2        5
siesta:      0.30500  -8.89455   0.10014  2        6
siesta:     -6.93117  -5.97976   0.10157  2        7
siesta:      3.63426   8.30759   0.09977  2        8
siesta:     -8.36516  -3.71784   0.10080  2        9
siesta:      5.30721  -7.09957   0.09929  2       10
siesta:     -1.65847   8.75335   0.10310  2       11
siesta:     -8.86063   1.56212   0.09982  2       12
siesta:     -4.16991   7.82464   0.10294  2       13
siesta:     -7.92542   4.06963   0.09964  2       14
siesta:      1.82631  -4.04371   4.79789  1       15
siesta:     -5.95464  -6.91012   2.41134  2       16
siesta:      8.32424   3.71129   2.41219  2       17
siesta:      4.17602  -7.84063   2.41016  2       18
siesta:     -8.79011  -2.43844   2.41175  2       19
siesta:     -9.03766   0.22583   2.40953  2       20
siesta:      6.91184   5.98924   2.41209  2       21
siesta:     -7.20285   5.21057   2.40745  2       22
siesta:      7.93504  -4.08192   2.41405  2       23
siesta:     -3.64733  -8.26483   2.41065  2       24
siesta:      8.85389  -1.56756   2.41466  2       25
siesta:      2.35468   8.74709   2.41432  2       26
siesta:     -5.30826   7.10128   2.41178  2       27
siesta:     -0.32186   8.93849   2.41498  2       28
siesta:      1.64673  -8.72976   2.41035  2       29
siesta:      2.26848   4.02489   2.92742  1       30
siesta:      7.20999  -5.21873   4.72513  2       31
siesta:      5.33330  -7.13447   4.72486  2       32
siesta:     -6.92415  -5.97457   4.72222  2       33
siesta:      5.93819   6.92992   4.72511  2       34
siesta:     -8.35614  -3.71461   4.72292  2       35
siesta:     -2.36067  -8.66554   4.72161  2       36
siesta:     -8.86397   1.56735   4.72074  2       37
siesta:      8.76945   2.43545   4.72080  2       38
siesta:      0.30666  -8.90692   4.72296  2       39
siesta:     -4.17198   7.83044   4.72181  2       40
siesta:     -7.95818   4.08953   4.71920  2       41
siesta:      3.64257   8.31882   4.72816  2       42
siesta:     -1.65813   8.74725   4.72529  2       43
siesta:      9.03026  -0.22808   4.72203  2       44
siesta:      4.17292  -7.83729   7.03881  2       45
siesta:     -3.64706  -8.26771   7.03372  2       46
siesta:      7.93475  -4.07815   7.03642  2       47
siesta:     -5.95242  -6.90934   7.03348  2       48
siesta:      8.85793  -1.56564   7.03374  2       49
siesta:      1.64726  -8.73313   7.03755  2       50
siesta:      8.37503   3.73046   7.03259  2       51
siesta:      6.90934   5.97691   7.03605  2       52
siesta:     -8.78195  -2.43651   7.03433  2       53
siesta:     -9.03659   0.22805   7.03385  2       54
siesta:      2.33980   8.69271   7.03816  2       55
siesta:     -0.32463   8.93333   7.03564  2       56
siesta:     -7.24714   5.24725   7.03386  2       57
siesta:     -5.32100   7.11830   7.03347  2       58
siesta:      4.29467   1.70376   8.54419  1       59
siesta:     -2.36064  -8.67168   9.34566  2       60
siesta:     -6.92372  -5.97481   9.34454  2       61
siesta:      7.20990  -5.21633   9.34615  2       62
siesta:      5.30290  -7.09487   9.34919  2       63
siesta:      5.93473   6.91599   9.34685  2       64
siesta:      0.30521  -8.89696   9.34817  2       65
siesta:     -8.35453  -3.71398   9.34419  2       66
siesta:      3.62474   8.27344   9.34618  2       67
siesta:     -4.17745   7.83666   9.34488  2       68
siesta:     -7.95183   4.08827   9.34768  2       69
siesta:      8.83016   2.45093   9.34553  2       70
siesta:     -1.66313   8.75583   9.34375  2       71
siesta:     -8.85815   1.56676   9.34572  2       72
siesta:      9.05345  -0.22700   9.34488  2       73
siesta:      2.33957   8.68907  11.65439  2       74
siesta:      4.15680  -7.80815  11.65701  2       75
siesta:     -0.32596   8.93122  11.65342  2       76
siesta:      8.86577  -1.56770  11.65556  2       77
siesta:      1.64052  -8.72019  11.65722  2       78
siesta:     -9.03402   0.22684  11.65514  2       79
siesta:     -8.79018  -2.43909  11.65317  2       80
siesta:     -7.20626   5.21499  11.65831  2       81
siesta:     -3.64999  -8.27270  11.65572  2       82
siesta:     -5.95710  -6.91424  11.65444  2       83
siesta:     -5.31161   7.10646  11.65644  2       84
siesta:      6.89794   5.96829  11.65694  2       85
siesta:      8.35068   3.71691  11.65882  2       86
siesta:      7.93860  -4.08037  11.65462  2       87
siesta:     -3.82816   2.19719   6.55874  1       88
siesta:      9.04169  -0.23140  13.96785  2       89
siesta:      0.30336  -8.89968  13.96524  2       90
siesta:      8.77254   2.43322  13.96831  2       91
siesta:     -1.66133   8.75831  13.96407  2       92
siesta:      3.62439   8.28118  13.96362  2       93
siesta:     -2.36389  -8.67640  13.96601  2       94
siesta:     -8.36397  -3.71864  13.96307  2       95
siesta:     -8.85976   1.56391  13.96423  2       96
siesta:      5.91886   6.90281  13.96557  2       97
siesta:      7.20927  -5.21512  13.96658  2       98
siesta:     -4.17491   7.83375  13.96506  2       99
siesta:     -6.93145  -5.98051  13.96416  2      100
siesta:     -7.92911   4.07369  13.96578  2      101
siesta:      5.30173  -7.09252  13.96552  2      102
siesta:      8.32356   3.70756  16.27681  2      103
siesta:      8.86535  -1.56994  16.27661  2      104
siesta:      4.15956  -7.81289  16.27380  2      105
siesta:      7.94333  -4.08417  16.27571  2      106
siesta:      6.88691   5.96511  16.27388  2      107
siesta:     -3.65061  -8.27105  16.27570  2      108
siesta:      2.34202   8.70384  16.27231  2      109
siesta:      1.64109  -8.72078  16.27371  2      110
siesta:     -5.95981  -6.91585  16.27454  2      111
siesta:     -0.32465   8.94060  16.27377  2      112
siesta:     -8.79695  -2.44042  16.27288  2      113
siesta:     -9.04364   0.22613  16.27318  2      114
siesta:     -7.19923   5.20752  16.27392  2      115
siesta:     -5.30793   7.10114  16.27422  2      116

siesta: System type = chain     

initatomlists: Number of atoms, orbitals, and projectors:    116  1476  1828

coxmol: Writing XMOL coordinates into file C112.xyz                                                        

siesta: ******************** Simulation parameters ****************************
siesta:
siesta: The following are some of the parameters of the simulation.
siesta: A complete list of the parameters used, including default values,
siesta: can be found in file out.fdf
siesta:
redata: Non-Collinear-spin run           =     F
redata: SpinPolarized (Up/Down) run      =     T
redata: Number of spin components        =     2
redata: Long output                      =     F
redata: Number of Atomic Species         =        2
redata: Charge density info will appear in .RHO file
redata: Write Mulliken Pop.              =     Atomic and Orbital charges
redata: Mesh Cutoff                      =   200.0000  Ry
redata: Net charge of the system         =     0.0000 |e|
redata: Min. number of SCF Iter          =        0
redata: Max. number of SCF Iter          =      150
redata: Mix DM or H after convergence    =     F
redata: Recompute H after scf cycle      =     F
redata: Performing Pulay mixing using    =     4 iterations
redata: Mix DM in first SCF step ?       =     F
redata: Write Pulay info on disk?        =     F
redata: Discard 1st Pulay DM after  kick =     F
redata: New DM Mixing Weight             =     0.3000
redata: New DM Occupancy tolerance       = 0.000000000001
redata: No kicks to SCF
redata: DM Mixing Weight for Kicks       =     0.5000
redata: DM Tolerance for SCF             =     0.000100
redata: Require (free) Energy convergence in SCF =     F
redata: DM (free)Energy tolerance for SCF =     0.000010 eV
redata: Require Harris convergence for SCF =     F
redata: DM Harris energy tolerance for SCF =     0.000010 eV
redata: Antiferro initial spin density   =     F
redata: Using Saved Data (generic)   =     F
redata: Use continuation files for DM    =     T
redata: Neglect nonoverlap interactions  =     F
redata: Method of Calculation            =     Diagonalization
redata: Divide and Conquer               =     T
redata: Electronic Temperature           =     0.0019  Ry
redata: Fix the spin of the system       =     F
redata: Dynamics option                  =     CG coord. optimization
redata: Variable cell                    =     F
redata: Use continuation files for CG    =     F
redata: Max atomic displ per move        =     0.2835  Bohr
redata: Maximum number of CG moves       =      320
redata: Force tolerance                  =     0.0016  Ry/Bohr
redata: ***********************************************************************
Total number of electrons:   452.000000
Total ionic charge:   452.000000

* ProcessorY, Blocksize:    6  24


* Orbital distribution balance (max,min):    48    24

k-point displ. along   1 input, could be:     0.50    0.00
k-point displ. along   2 input, could be:     0.50    0.00
 Kpoints in:           16 . Kpoints trimmed:           16

siesta: k-grid: Number of k-points =    16
siesta: k-grid: Cutoff (effective) =    48.903 Ang
siesta: k-grid: Supercell and displacements
siesta: k-grid:    1   0   0      0.500
siesta: k-grid:    0   1   0      0.500
siesta: k-grid:    0   0  32      0.500
Naive supercell factors:     1    1    3

superc: Internal auxiliary supercell:     1 x     1 x     3  =       3
superc: Number of atoms, orbitals, and projectors:    348   4428   5484

                     ====================================
                        Begin CG opt. move =      0

zmatrix: Z-matrix coordinates: (Ang ; rad )
zmatrix: (Fractional coordinates have been converted to cartesian)
cartesian block    1 (   116 atoms)
      3.13739700      3.66164800      0.05295900
     -1.24958300     -4.58790700      0.05431800
      4.63469100      1.28730400      0.05502900
      4.77610500     -0.12194400      0.05539000
      3.81437700     -2.76032500      0.05397900
      0.16140100     -4.70679300      0.05299300
     -3.66781600     -3.16434900      0.05375100
      1.92316800      4.39618400      0.05279700
     -4.42665100     -1.96739400      0.05334300
      2.80845400     -3.75692800      0.05254000
     -0.87762200      4.63207100      0.05456000
     -4.68884300      0.82663700      0.05282000
     -2.20662300      4.14061900      0.05447100
     -4.19394800      2.15355700      0.05272900
      0.96643900     -2.13983900      2.53893100
     -3.15105700     -3.65667500      1.27602500
      4.40499800      1.96392800      1.27647600
      2.20985400     -4.14908200      1.27539900
     -4.65152400     -1.29036500      1.27624400
     -4.78252000      0.11950300      1.27506900
      3.65758600      3.16937000      1.27642200
     -3.81158400      2.75731200      1.27396800
      4.19904100     -2.16005600      1.27746000
     -1.93008100     -4.37356000      1.27566000
      4.68527700     -0.82951700      1.27778300
      1.24604100      4.62876100      1.27760200
     -2.80900700      3.75783500      1.27625600
     -0.17031900      4.73004100      1.27795300
      0.87141000     -4.61958600      1.27550200
      1.20042600      2.12987900      1.54912400
      3.81536100     -2.76163200      2.50042800
      2.82226200     -3.77539900      2.50028700
     -3.66410000     -3.16160700      2.49889200
      3.14235600      3.66715200      2.50041900
     -4.42187600     -1.96568400      2.49926300
     -1.24921200     -4.58560300      2.49857000
     -4.69060800      0.82940400      2.49810800
      4.64059300      1.28878300      2.49813900
      0.16227700     -4.71333600      2.49928000
     -2.20771600      4.14368700      2.49867300
     -4.21128400      2.16408700      2.49729300
      1.92756400      4.40212900      2.50203300
     -0.87744500      4.62884400      2.50051700
      4.77860600     -0.12069400      2.49878800
      2.20821200     -4.14731300      3.72477500
     -1.92993900     -4.37508300      3.72208200
      4.19888600     -2.15806200      3.72350900
     -3.14988300     -3.65626300      3.72195700
      4.68741300     -0.82850200      3.72209600
      0.87169200     -4.62136900      3.72410900
      4.43187400      1.97407500      3.72148700
      3.65626600      3.16284500      3.72331400
     -4.64720600     -1.28934600      3.72240600
     -4.78195400      0.12067800      3.72215000
      1.23816800      4.59998200      3.72443500
     -0.17178600      4.72731400      3.72310000
     -3.83501900      2.77672500      3.72215900
     -2.81575300      3.76684000      3.72195200
      2.27264100      0.90158900      4.52139100
     -1.24919900     -4.58885100      4.94550800
     -3.66387600     -3.16173400      4.94491300
      3.81531200     -2.76036300      4.94576800
      2.80617400     -3.75444400      4.94737400
      3.14052400      3.65978100      4.94614000
      0.16150800     -4.70806500      4.94683500
     -4.42102300     -1.96535300      4.94472900
      1.91813000      4.37811300      4.94578100
     -2.21061200      4.14698000      4.94509500
     -4.20792500      2.16342100      4.94657500
      4.67271700      1.29697700      4.94544200
     -0.88009000      4.63338300      4.94449700
     -4.68752700      0.82909500      4.94553800
      4.79088000     -0.12012400      4.94509400
      1.23804800      4.59805700      6.16723700
      2.19968300     -4.13189400      6.16862400
     -0.17249000      4.72619400      6.16672000
      4.69156300     -0.82959300      6.16785600
      0.86812400     -4.61452300      6.16873400
     -4.78059400      0.12004100      6.16763300
     -4.65156000     -1.29071000      6.16659200
     -3.81338700      2.75965200      6.16930800
     -1.93148900     -4.37772300      6.16794100
     -3.15236100     -3.65885600      6.16726200
     -2.81078300      3.76057300      6.16831800
      3.65023300      3.15828400      6.16858700
      4.41898600      1.96690500      6.16958200
      4.20092600     -2.15924000      6.16735900
     -2.02577400      1.16270300      3.47073300
      4.78465500     -0.12245100      7.39146700
      0.16053200     -4.70950500      7.39008200
      4.64222800      1.28760600      7.39170800
     -0.87913900      4.63469500      7.38946500
      1.91794600      4.38221200      7.38922600
     -1.25091500     -4.59135300      7.39049200
     -4.42602300     -1.96781800      7.38893400
     -4.68837900      0.82758300      7.38955100
      3.13212200      3.65280700      7.39026000
      3.81497900     -2.75972300      7.39079200
     -2.20926600      4.14543800      7.38998800
     -3.66796200     -3.16475000      7.38951200
     -4.19590500      2.15570200      7.39037100
      2.80555600     -3.75320100      7.39023400
      4.40463800      1.96195800      8.61331100
      4.69134100     -0.83077500      8.61320700
      2.20114200     -4.13440200      8.61172200
      4.20342800     -2.16124900      8.61273200
      3.64439500      3.15660100      8.61176400
     -1.93181800     -4.37685200      8.61272400
      1.23934400      4.60587400      8.61093000
      0.86842700     -4.61483700      8.61167300
     -3.15379400     -3.65970700      8.61211400
     -0.17179900      4.73115800      8.61170600
     -4.65514100     -1.29141600      8.61123600
     -4.78568800      0.11966200      8.61139300
     -3.80966800      2.75569900      8.61178600
     -2.80883500      3.75776100      8.61194500


Z-matrix Symbol Section -------
Variables
Constants
------------ End of Z-matrix Information

                     ====================================

superc: Internal auxiliary supercell:     1 x     1 x     3  =       3
superc: Number of atoms, orbitals, and projectors:    348   4428   5484

outcell: Unit cell vectors (Ang):
       97.806123    0.000000    0.000000
        0.000000   97.806123    0.000000
        0.000000    0.000000    9.780612

outcell: Cell vector modules (Ang)   :   97.806123   97.806123    9.780612
outcell: Cell angles (23,13,12) (deg):     90.0000     90.0000     90.0000
outcell: Cell volume (Ang**3)        :  93561.7055
New_DM. Step:     1
Initializing Density Matrix...

initdm: Initial spin polarization (Qup-Qdown) =  228.000000
New grid distribution:   1
           1       1:  432    1:   72    1:    6
           2       1:  432    1:   72    7:   12
           3       1:  432    1:   72   13:   18
           4       1:  432    1:   72   19:   24
           5       1:  432    1:   72   25:   30
           6       1:  432    1:   72   31:   35
           7       1:  432    1:   72   36:   40
           8       1:  432    1:   72   41:   45
           9       1:  432   73:  144    1:    6
          10       1:  432   73:  144    7:   12
          11       1:  432   73:  144   13:   18
          12       1:  432   73:  144   19:   24
          13       1:  432   73:  144   25:   30
          14       1:  432   73:  144   31:   35
          15       1:  432   73:  144   36:   40
          16       1:  432   73:  144   41:   45
          17       1:  432  145:  216    1:    6
          18       1:  432  145:  216    7:   12
          19       1:  432  145:  216   13:   18
          20       1:  432  145:  216   19:   24
          21       1:  432  145:  216   25:   30
          22       1:  432  145:  216   31:   35
          23       1:  432  145:  216   36:   40
          24       1:  432  145:  216   41:   45
          25       1:  432  217:  288    1:    6
          26       1:  432  217:  288    7:   12
          27       1:  432  217:  288   13:   18
          28       1:  432  217:  288   19:   24
          29       1:  432  217:  288   25:   30
          30       1:  432  217:  288   31:   35
          31       1:  432  217:  288   36:   40
          32       1:  432  217:  288   41:   45
          33       1:  432  289:  360    1:    6
          34       1:  432  289:  360    7:   12
          35       1:  432  289:  360   13:   18
          36       1:  432  289:  360   19:   24
          37       1:  432  289:  360   25:   30
          38       1:  432  289:  360   31:   35
          39       1:  432  289:  360   36:   40
          40       1:  432  289:  360   41:   45
          41       1:  432  361:  432    1:    6
          42       1:  432  361:  432    7:   12
          43       1:  432  361:  432   13:   18
          44       1:  432  361:  432   19:   24
          45       1:  432  361:  432   25:   30
          46       1:  432  361:  432   31:   35
          47       1:  432  361:  432   36:   40
          48       1:  432  361:  432   41:   45

InitMesh: MESH =   864 x   864 x    90 =    67184640
InitMesh: (bp) =   432 x   432 x    45 =     8398080
InitMesh: Mesh cutoff (required, used) =   200.000   215.674 Ry
ExtMesh (bp) on 0 =   528 x   168 x   106 =     9402624
New grid distribution:   2
           1      28:  417   16:   28    1:   45
           2       1:   16    1:    7    1:   45
           3     423:  427   18:   28    1:   45
           4     424:  427  410:  419    1:   45
           5      28:  410    5:   12    1:   45
           6      16:   30  413:  419    1:   45
           7     428:  432   18:   28    1:   45
           8     417:  420  423:  432    1:   45
           9      31:  423   29:  412    1:   45
          10     416:  432    1:    6    1:   45
          11      11:   27   14:   16    1:   45
          12     412:  416  425:  432    1:   45
          13      10:   30   29:  412    1:   45
          14      22:   30  425:  432    1:   45
          15       1:   10   14:   18    1:   45
          16      13:   16  423:  432    1:   45
          17     424:  432   29:  409    1:   45
          18      17:   30  420:  424    1:   45
          19       6:   10   19:   28    1:   45
          20      17:   21  425:  432    1:   45
          21       1:    9   29:  409    1:   45
          22     422:  432    7:   12    1:   45
          23     423:  432   13:   17    1:   45
          24       6:    9  410:  419    1:   45
          25      31:  416  420:  424    1:   45
          26     418:  422   16:   28    1:   45
          27       1:    5   19:   28    1:   45
          28     411:  415    5:   12    1:   45
          29      28:  415    1:    4    1:   45
          30      21:   27    5:   13    1:   45
          31     417:  432  420:  422    1:   45
          32     416:  421    7:   12    1:   45
          33      28:  422   13:   15    1:   45
          34      11:   15   17:   28    1:   45
          35       1:   16  420:  422    1:   45
          36      17:   20    5:   13    1:   45
          37      16:   27   17:   28    1:   45
          38       1:   10    8:   13    1:   45
          39      17:   27    1:    4    1:   45
          40      11:   16    8:   13    1:   45
          41      31:  411  425:  432    1:   45
          42     421:  432  423:  432    1:   45
          43       1:    5  410:  419    1:   45
          44     418:  423  413:  419    1:   45
          45      31:  417  413:  419    1:   45
          46       1:   12  423:  432    1:   45
          47     428:  432  410:  419    1:   45
          48      10:   15  413:  419    1:   45
New grid distribution:   3
           1     182:  406    6:   16    1:   45
           2      27:  181    6:   16    1:   45
           3       1:   18    1:    6    1:   45
           4     416:  424  423:  432    1:   45
           5      27:  217  423:  432    1:   45
           6     182:  417   17:   22    1:   45
           7     416:  432  417:  422    1:   45
           8     418:  432   17:   22    1:   45
           9     182:  382   23:  200    1:   45
          10      15:   24   23:  200    1:   45
          11       1:   17  417:  422    1:   45
          12     416:  424    7:   16    1:   45
          13      25:  181   23:  200    1:   45
          14     418:  425   23:  200    1:   45
          15     416:  432    1:    6    1:   45
          16      18:   26  423:  432    1:   45
          17     383:  417   23:  200    1:   45
          18     426:  432   23:  200    1:   45
          19     407:  415    6:   16    1:   45
          20      19:   26    6:   16    1:   45
          21     218:  406  423:  432    1:   45
          22       1:    7   24:  200    1:   45
          23       1:   14   17:   23    1:   45
          24       9:   15  405:  416    1:   45
          25     218:  417  201:  382    1:   45
          26       8:   14   24:  200    1:   45
          27       1:    8  405:  416    1:   45
          28     426:  432  405:  416    1:   45
          29      16:  217  201:  379    1:   45
          30     182:  415    1:    5    1:   45
          31     418:  425  405:  416    1:   45
          32     425:  432  423:  432    1:   45
          33     418:  432  201:  404    1:   45
          34      15:  181   17:   22    1:   45
          35       1:    9    7:   16    1:   45
          36      10:   17  423:  432    1:   45
          37       1:   15  201:  404    1:   45
          38      19:  181    1:    5    1:   45
          39      10:   18    7:   16    1:   45
          40     425:  432    7:   16    1:   45
          41      22:  217  380:  416    1:   45
          42      18:  217  417:  422    1:   45
          43      16:   21  380:  416    1:   45
          44       1:    9  423:  432    1:   45
          45     218:  411  383:  416    1:   45
          46     218:  415  417:  422    1:   45
          47     412:  417  383:  416    1:   45
          48     407:  415  423:  432    1:   45
Setting up quadratic distribution...
ExtMesh (bp) on 0 =   486 x   109 x   145 =     7681230
PhiOnMesh: Number of (b)points on node 0 =               228150
PhiOnMesh: nlist on node 0 =               461597

stepf: Fermi-Dirac step function

siesta: Program's energy decomposition (eV):
siesta: Ebs     =     -7610.533162
siesta: Eions   =     35446.087679
siesta: Ena     =     11783.972814
siesta: Ekin    =     10058.536082
siesta: Enl     =      1112.994656
siesta: DEna    =         0.000007
siesta: DUscf   =         0.000000
siesta: DUext   =         0.000000
siesta: Exc     =     -5324.240065
siesta: eta*DQ  =         0.000000
siesta: Emadel  =         0.000000
siesta: Emeta   =         0.000000
siesta: Emolmec =         0.000000
siesta: Ekinion =         0.000000
siesta: Eharris =    -17258.614859
siesta: Etot    =    -17814.824186
siesta: FreeEng =    -17814.879647

   scf: iscf   Eharris(eV)      E_KS(eV)   FreeEng(eV)    dDmax  Ef(eV)
   scf:    1   -17258.6149   -17814.8242   -17814.8796  0.94503 -7.0837
timer: Routine,Calls,Time,% =    IterSCF     1     116.955  83.97
   scf:    2   -17416.7966   -17371.6987   -17371.7247  0.37806 -4.9079
   scf:    3   -17404.8494   -17395.9935   -17396.0075  0.14894 -4.3914
   scf:    4   -17404.1228   -17394.4457   -17394.4539  0.10522 -4.7985
   scf:    5   -17405.5473   -17399.1192   -17399.1524  0.09091 -4.8547
   scf:    6   -17404.8624   -17398.2498   -17398.2622  0.05791 -5.4310
   scf:    7   -17404.0885   -17399.9389   -17399.9455  0.03553 -5.1420
   scf:    8   -17403.9550   -17401.4461   -17401.4681  0.02228 -5.0726
   scf:    9   -17403.9465   -17402.1833   -17402.2087  0.02011 -5.0245
   scf:   10   -17403.9431   -17403.2216   -17403.2610  0.01708 -4.9635
   scf:   11   -17403.9215   -17403.3618   -17403.3869  0.00945 -5.0195
   scf:   12   -17403.9058   -17404.0660   -17404.1064  0.01251 -4.9387
   scf:   13   -17403.9208   -17403.8602   -17403.8870  0.00785 -4.9878
   scf:   14   -17403.9139   -17403.8795   -17403.9096  0.00632 -4.9743
   scf:   15   -17403.9155   -17403.8467   -17403.8761  0.00687 -4.9762
   scf:   16   -17403.9134   -17403.8681   -17403.8990  0.00841 -4.9627
   scf:   17   -17403.9115   -17403.8764   -17403.9087  0.00874 -4.9603
   scf:   18   -17403.9142   -17403.8801   -17403.9102  0.00630 -4.9694
   scf:   19   -17403.9181   -17403.8721   -17403.9020  0.00897 -4.9587
   scf:   20   -17403.9195   -17403.8768   -17403.9064  0.00806 -4.9583
   scf:   21   -17403.9212   -17403.8926   -17403.9212  0.00454 -4.9619
   scf:   22   -17403.9214   -17403.9094   -17403.9374  0.00300 -4.9642
   scf:   23   -17403.9212   -17403.9272   -17403.9560  0.00352 -4.9589
   scf:   24   -17403.9225   -17403.9395   -17403.9671  0.00106 -4.9658
   scf:   25   -17403.9225   -17403.9397   -17403.9675  0.00071 -4.9645
   scf:   26   -17403.9221   -17403.9378   -17403.9659  0.00072 -4.9629
   scf:   27   -17403.9218   -17403.9340   -17403.9622  0.00069 -4.9627
   scf:   28   -17403.9220   -17403.9333   -17403.9613  0.00044 -4.9634
   scf:   29   -17403.9219   -17403.9297   -17403.9578  0.00046 -4.9631
   scf:   30   -17403.9220   -17403.9216   -17403.9496  0.00012 -4.9636
   scf:   31   -17403.9220   -17403.9201   -17403.9481  0.00009 -4.9637

SCF Convergence by dMax criterion
max |DM_out - DM_in|:     0.00009319
SCF cycle converged after   31 iterations

Using DM_out to compute the final energy and forces

siesta: E_KS(eV) =           -17403.9220

siesta: E_KS - E_eggbox =    -17403.9220

zmatrix: Atomic forces (eV/Ang ; eV/rad )
zmatrix: (No information if symbols are used)
cartesian    1 (   116 atoms)
     1   -0.008083    0.014052    0.011095
     2    0.023348   -0.014972   -0.027000
     3   -0.011342   -0.003758    0.002738
     4   -0.000069    0.004131   -0.016612
     5    0.020241   -0.002580    0.013914
     6    0.006046   -0.004394   -0.002428
     7    0.000697    0.034092   -0.014418
     8    0.007106    0.000614   -0.004201
     9    0.027637   -0.014202   -0.007094
    10   -0.012415   -0.011156   -0.009770
    11   -0.002033   -0.010898    0.009706
    12   -0.004787    0.006843    0.016200
    13    0.004231    0.006974   -0.010681
    14   -0.010826    0.013009    0.001716
    15   -0.022070   -0.025039    0.000429
    16    0.012250   -0.002961   -0.002937
    17   -0.018002    0.011810   -0.005726
    18    0.004463    0.010346   -0.004671
    19    0.001979    0.005540    0.011823
    20    0.008819   -0.015395    0.005688
    21   -0.011559   -0.015841    0.004209
    22   -0.002562    0.015844    0.010190
    23   -0.011198    0.012103    0.006906
    24   -0.013134    0.014770    0.029518
    25   -0.008949   -0.001747    0.003569
    26   -0.012963   -0.020580   -0.000321
    27    0.001390    0.002508   -0.025576
    28   -0.007108   -0.014587   -0.037882
    29    0.021423   -0.004354   -0.008476
    30    0.043674    0.026470   -0.034212
    31    0.007331    0.010967   -0.021354
    32   -0.005528    0.017362   -0.010337
    33    0.001128    0.024812    0.022765
    34   -0.006746   -0.013307   -0.005052
    35    0.026852   -0.013483   -0.010212
    36    0.021120   -0.011159    0.023590
    37    0.002664    0.004183    0.004921
    38    0.008417   -0.011719   -0.011197
    39   -0.019119   -0.001477    0.018660
    40   -0.014536   -0.014451    0.002067
    41   -0.009360    0.008448   -0.001681
    42    0.001663   -0.001391    0.006922
    43   -0.003867   -0.000265   -0.012722
    44    0.000761    0.008912   -0.010071
    45    0.000948   -0.008457    0.000391
    46   -0.013392    0.027311    0.017263
    47   -0.013896   -0.000036    0.004884
    48    0.032724   -0.011297   -0.010254
    49   -0.002637   -0.011572    0.008154
    50    0.000910   -0.005022   -0.012712
    51   -0.018165    0.014788   -0.017855
    52   -0.027800    0.004938    0.017288
    53   -0.001228    0.010236   -0.034674
    54    0.000038   -0.014636   -0.010330
    55    0.008453    0.003311    0.009496
    56    0.002720   -0.006019    0.014868
    57    0.006080   -0.006177    0.009245
    58   -0.007441   -0.007949    0.018046
    59    0.020824    0.034014    0.012380
    60    0.013045   -0.010271   -0.023389
    61    0.005654    0.001295   -0.006106
    62   -0.000259    0.018338    0.005844
    63    0.011352    0.006577    0.007636
    64   -0.024571   -0.004997   -0.020818
    65   -0.011204    0.000448   -0.006252
    66    0.025220   -0.015709    0.002819
    67    0.002293    0.002397    0.006344
    68    0.002571   -0.028716    0.003342
    69    0.004271   -0.003985   -0.005846
    70   -0.016533   -0.015356    0.011629
    71    0.001677   -0.014461   -0.007075
    72    0.008360    0.025874   -0.004105
    73   -0.021556   -0.007669    0.018493
    74   -0.001762   -0.008228   -0.017477
    75    0.018767   -0.003327    0.005586
    76   -0.007441   -0.001465    0.021524
    77   -0.006312    0.008792   -0.006275
    78    0.016467   -0.007576   -0.008233
    79   -0.004222   -0.016409    0.002756
    80    0.002411    0.016809    0.019085
    81    0.000036    0.012249   -0.001694
    82   -0.007327    0.009102   -0.008750
    83    0.020882   -0.006275    0.013520
    84   -0.015805    0.014896   -0.011772
    85   -0.003624    0.000938    0.017109
    86   -0.004976    0.013788    0.010505
    87    0.004122    0.007527    0.013782
    88   -0.027326   -0.020785   -0.000909
    89    0.005682   -0.009258   -0.003945
    90    0.002981   -0.004510    0.018549
    91   -0.000587   -0.000656    0.016467
    92    0.004181   -0.002824    0.013753
    93   -0.008812   -0.011020   -0.003086
    94    0.000096   -0.008303   -0.009824
    95    0.016242   -0.011135    0.015147
    96   -0.005241    0.006316    0.003344
    97    0.001922   -0.003710   -0.017390
    98    0.001116    0.016634   -0.021999
    99   -0.007016   -0.008798    0.011926
   100    0.005900    0.010001   -0.004741
   101   -0.011398   -0.002366   -0.025134
   102   -0.014380   -0.003160    0.000103
   103   -0.007511    0.000562   -0.010803
   104   -0.008522    0.024872    0.001501
   105    0.009043    0.001536    0.009579
   106   -0.012386   -0.005996   -0.002169
   107    0.005132   -0.008247    0.003432
   108   -0.012264    0.004928   -0.008858
   109   -0.010902    0.001593    0.008273
   110    0.017203   -0.008592    0.003186
   111    0.016015   -0.004299    0.005209
   112   -0.013113   -0.001522    0.002111
   113   -0.000307   -0.005824    0.009208
   114    0.000386   -0.028064   -0.009421
   115    0.006655    0.007373    0.017193
   116    0.016440    0.000448    0.007734


Variable forces (eV/Ang ; eV/rad )

siesta: Atomic forces (eV/Ang):
     1   -0.008083    0.014052    0.011095
     2    0.023348   -0.014972   -0.027000
     3   -0.011342   -0.003758    0.002738
     4   -0.000069    0.004131   -0.016612
     5    0.020241   -0.002580    0.013914
     6    0.006046   -0.004394   -0.002428
     7    0.000697    0.034092   -0.014418
     8    0.007106    0.000614   -0.004201
     9    0.027637   -0.014202   -0.007094
    10   -0.012415   -0.011156   -0.009770
    11   -0.002033   -0.010898    0.009706
    12   -0.004787    0.006843    0.016200
    13    0.004231    0.006974   -0.010681
    14   -0.010826    0.013009    0.001716
    15   -0.022070   -0.025039    0.000429
    16    0.012250   -0.002961   -0.002937
    17   -0.018002    0.011810   -0.005726
    18    0.004463    0.010346   -0.004671
    19    0.001979    0.005540    0.011823
    20    0.008819   -0.015395    0.005688
    21   -0.011559   -0.015841    0.004209
    22   -0.002562    0.015844    0.010190
    23   -0.011198    0.012103    0.006906
    24   -0.013134    0.014770    0.029518
    25   -0.008949   -0.001747    0.003569
    26   -0.012963   -0.020580   -0.000321
    27    0.001390    0.002508   -0.025576
    28   -0.007108   -0.014587   -0.037882
    29    0.021423   -0.004354   -0.008476
    30    0.043674    0.026470   -0.034212
    31    0.007331    0.010967   -0.021354
    32   -0.005528    0.017362   -0.010337
    33    0.001128    0.024812    0.022765
    34   -0.006746   -0.013307   -0.005052
    35    0.026852   -0.013483   -0.010212
    36    0.021120   -0.011159    0.023590
    37    0.002664    0.004183    0.004921
    38    0.008417   -0.011719   -0.011197
    39   -0.019119   -0.001477    0.018660
    40   -0.014536   -0.014451    0.002067
    41   -0.009360    0.008448   -0.001681
    42    0.001663   -0.001391    0.006922
    43   -0.003867   -0.000265   -0.012722
    44    0.000761    0.008912   -0.010071
    45    0.000948   -0.008457    0.000391
    46   -0.013392    0.027311    0.017263
    47   -0.013896   -0.000036    0.004884
    48    0.032724   -0.011297   -0.010254
    49   -0.002637   -0.011572    0.008154
    50    0.000910   -0.005022   -0.012712
    51   -0.018165    0.014788   -0.017855
    52   -0.027800    0.004938    0.017288
    53   -0.001228    0.010236   -0.034674
    54    0.000038   -0.014636   -0.010330
    55    0.008453    0.003311    0.009496
    56    0.002720   -0.006019    0.014868
    57    0.006080   -0.006177    0.009245
    58   -0.007441   -0.007949    0.018046
    59    0.020824    0.034014    0.012380
    60    0.013045   -0.010271   -0.023389
    61    0.005654    0.001295   -0.006106
    62   -0.000259    0.018338    0.005844
    63    0.011352    0.006577    0.007636
    64   -0.024571   -0.004997   -0.020818
    65   -0.011204    0.000448   -0.006252
    66    0.025220   -0.015709    0.002819
    67    0.002293    0.002397    0.006344
    68    0.002571   -0.028716    0.003342
    69    0.004271   -0.003985   -0.005846
    70   -0.016533   -0.015356    0.011629
    71    0.001677   -0.014461   -0.007075
    72    0.008360    0.025874   -0.004105
    73   -0.021556   -0.007669    0.018493
    74   -0.001762   -0.008228   -0.017477
    75    0.018767   -0.003327    0.005586
    76   -0.007441   -0.001465    0.021524
    77   -0.006312    0.008792   -0.006275
    78    0.016467   -0.007576   -0.008233
    79   -0.004222   -0.016409    0.002756
    80    0.002411    0.016809    0.019085
    81    0.000036    0.012249   -0.001694
    82   -0.007327    0.009102   -0.008750
    83    0.020882   -0.006275    0.013520
    84   -0.015805    0.014896   -0.011772
    85   -0.003624    0.000938    0.017109
    86   -0.004976    0.013788    0.010505
    87    0.004122    0.007527    0.013782
    88   -0.027326   -0.020785   -0.000909
    89    0.005682   -0.009258   -0.003945
    90    0.002981   -0.004510    0.018549
    91   -0.000587   -0.000656    0.016467
    92    0.004181   -0.002824    0.013753
    93   -0.008812   -0.011020   -0.003086
    94    0.000096   -0.008303   -0.009824
    95    0.016242   -0.011135    0.015147
    96   -0.005241    0.006316    0.003344
    97    0.001922   -0.003710   -0.017390
    98    0.001116    0.016634   -0.021999
    99   -0.007016   -0.008798    0.011926
   100    0.005900    0.010001   -0.004741
   101   -0.011398   -0.002366   -0.025134
   102   -0.014380   -0.003160    0.000103
   103   -0.007511    0.000562   -0.010803
   104   -0.008522    0.024872    0.001501
   105    0.009043    0.001536    0.009579
   106   -0.012386   -0.005996   -0.002169
   107    0.005132   -0.008247    0.003432
   108   -0.012264    0.004928   -0.008858
   109   -0.010902    0.001593    0.008273
   110    0.017203   -0.008592    0.003186
   111    0.016015   -0.004299    0.005209
   112   -0.013113   -0.001522    0.002111
   113   -0.000307   -0.005824    0.009208
   114    0.000386   -0.028064   -0.009421
   115    0.006655    0.007373    0.017193
   116    0.016440    0.000448    0.007734
----------------------------------------
   Tot    0.005884   -0.032713   -0.001206
----------------------------------------
   Max    0.043674
   Res    0.012889    sqrt( Sum f_i^2 / 3N )
----------------------------------------
   Max    0.043674    constrained

Stress-tensor-Voigt (kbar):        0.02        0.01       -0.36        0.01        0.00        0.00
(Free)E + p*V (eV/cell)   -17397.5750
Target enthalpy (eV/cell)   -17403.9500
 
mulliken: Atomic and Orbital Populations:

mulliken: Spin UP 

Species: Li                  
Atom  Qatom  Qorb
               2s      2s      2Ppy    2Ppz    2Ppx    
  15  0.080   0.054   0.013   0.028  -0.004  -0.010
  30  0.117   0.069   0.018   0.017   0.018  -0.004
  59  0.118   0.071   0.018  -0.007   0.018   0.018
  88  0.082   0.057   0.012  -0.009  -0.004   0.025

Species: C                   
Atom  Qatom  Qorb
               2s      2s      2py     2pz     2px     2py     2pz     2px     
               2Pdxy   2Pdyz   2Pdz2   2Pdxz   2Pdx2-y2
   1  2.022   0.384   0.074   0.464   0.461   0.470   0.023   0.035   0.027
              0.009   0.019   0.019   0.022   0.014
   2  2.006   0.383   0.075   0.460   0.458   0.462   0.018   0.036   0.035
              0.012   0.014   0.019   0.026   0.008
   3  2.008   0.382   0.075   0.462   0.456   0.465   0.035   0.037   0.017
              0.012   0.026   0.019   0.014   0.009
   4  2.006   0.383   0.075   0.460   0.457   0.463   0.036   0.037   0.017
              0.013   0.026   0.019   0.013   0.007
   5  2.007   0.383   0.075   0.458   0.458   0.465   0.028   0.036   0.024
              0.008   0.021   0.019   0.019   0.013
   6  2.007   0.382   0.075   0.465   0.457   0.460   0.017   0.037   0.036
              0.013   0.014   0.019   0.026   0.007
   7  2.003   0.383   0.075   0.463   0.457   0.458   0.029   0.037   0.024
              0.007   0.021   0.019   0.018   0.013
   8  2.024   0.384   0.074   0.473   0.461   0.462   0.018   0.035   0.031
              0.012   0.018   0.019   0.024   0.012
   9  2.003   0.383   0.075   0.459   0.457   0.463   0.032   0.037   0.021
              0.010   0.023   0.019   0.016   0.010
  10  2.009   0.382   0.075   0.464   0.458   0.461   0.024   0.036   0.028
              0.008   0.019   0.019   0.021   0.013
  11  2.011   0.383   0.075   0.466   0.457   0.462   0.018   0.036   0.034
              0.013   0.015   0.019   0.025   0.008
  12  2.004   0.383   0.075   0.459   0.458   0.462   0.034   0.037   0.018
              0.012   0.025   0.019   0.014   0.008
  13  2.005   0.382   0.075   0.461   0.457   0.463   0.021   0.037   0.032
              0.009   0.015   0.019   0.024   0.011
  14  2.004   0.383   0.075   0.462   0.457   0.460   0.032   0.037   0.021
              0.009   0.024   0.019   0.015   0.011
  16  2.005   0.383   0.075   0.458   0.458   0.464   0.024   0.037   0.029
              0.007   0.017   0.019   0.022   0.013
  17  2.014   0.381   0.075   0.457   0.459   0.472   0.032   0.036   0.019
              0.011   0.023   0.020   0.016   0.012
  18  2.028   0.384   0.074   0.471   0.462   0.469   0.018   0.035   0.030
              0.011   0.018   0.019   0.024   0.013
  19  2.005   0.383   0.075   0.462   0.458   0.460   0.035   0.036   0.018
              0.012   0.026   0.019   0.014   0.008
  20  2.008   0.382   0.075   0.461   0.457   0.465   0.035   0.037   0.017
              0.013   0.026   0.019   0.014   0.007
  21  2.034   0.384   0.073   0.473   0.461   0.476   0.027   0.035   0.020
              0.009   0.022   0.019   0.020   0.016
  22  2.013   0.383   0.075   0.461   0.459   0.466   0.028   0.036   0.024
              0.008   0.021   0.019   0.019   0.013
  23  2.012   0.383   0.075   0.463   0.458   0.466   0.032   0.036   0.019
              0.009   0.024   0.019   0.016   0.012
  24  2.008   0.383   0.075   0.464   0.457   0.461   0.020   0.037   0.032
              0.011   0.016   0.019   0.024   0.010
  25  2.006   0.381   0.075   0.459   0.457   0.466   0.034   0.037   0.018
              0.012   0.025   0.019   0.014   0.008
  26  2.047   0.386   0.072   0.488   0.463   0.471   0.013   0.034   0.032
              0.015   0.017   0.019   0.026   0.011
  27  2.012   0.383   0.075   0.466   0.459   0.460   0.024   0.036   0.028
              0.008   0.019   0.019   0.021   0.013
  28  2.020   0.383   0.074   0.471   0.461   0.461   0.015   0.035   0.035
              0.015   0.015   0.019   0.026   0.009
  29  2.026   0.384   0.074   0.475   0.463   0.460   0.016   0.035   0.034
              0.014   0.016   0.019   0.025   0.010
  31  2.020   0.382   0.074   0.459   0.460   0.474   0.028   0.036   0.022
              0.009   0.021   0.019   0.019   0.015
  32  2.049   0.387   0.072   0.483   0.463   0.477   0.021   0.034   0.024
              0.010   0.020   0.019   0.023   0.016
  33  2.006   0.383   0.075   0.464   0.458   0.459   0.028   0.036   0.024
              0.007   0.021   0.019   0.018   0.013
  34  2.031   0.382   0.074   0.468   0.463   0.472   0.022   0.034   0.027
              0.010   0.020   0.020   0.022   0.016
  35  2.007   0.382   0.075   0.461   0.457   0.464   0.031   0.036   0.021
              0.010   0.023   0.019   0.016   0.010
  36  2.015   0.383   0.075   0.465   0.460   0.464   0.017   0.036   0.034
              0.013   0.014   0.019   0.026   0.009
  37  2.023   0.383   0.074   0.459   0.463   0.474   0.034   0.035   0.016
              0.014   0.025   0.019   0.016   0.010
  38  2.016   0.382   0.075   0.462   0.460   0.467   0.035   0.036   0.016
              0.013   0.026   0.019   0.016   0.010
  39  2.034   0.384   0.073   0.481   0.460   0.467   0.014   0.035   0.034
              0.016   0.016   0.019   0.026   0.009
  40  2.018   0.382   0.075   0.469   0.459   0.465   0.019   0.036   0.032
              0.009   0.017   0.019   0.024   0.013
  41  2.035   0.384   0.073   0.471   0.462   0.476   0.030   0.035   0.018
              0.011   0.024   0.019   0.018   0.014
  42  2.033   0.383   0.073   0.480   0.463   0.464   0.017   0.034   0.030
              0.013   0.018   0.020   0.024   0.012
  43  2.015   0.382   0.075   0.469   0.458   0.462   0.017   0.036   0.034
              0.014   0.015   0.019   0.025   0.009
  44  2.012   0.382   0.075   0.462   0.461   0.465   0.035   0.036   0.016
              0.014   0.026   0.019   0.014   0.008
  45  2.030   0.384   0.074   0.472   0.462   0.470   0.018   0.035   0.030
              0.011   0.018   0.019   0.024   0.013
  46  2.009   0.383   0.075   0.465   0.457   0.461   0.020   0.036   0.032
              0.011   0.016   0.019   0.024   0.010
  47  2.016   0.382   0.075   0.466   0.459   0.465   0.031   0.036   0.019
              0.010   0.024   0.019   0.017   0.013
  48  2.006   0.383   0.075   0.458   0.458   0.464   0.024   0.036   0.029
              0.007   0.017   0.019   0.022   0.013
  49  2.019   0.382   0.075   0.464   0.459   0.471   0.033   0.036   0.017
              0.014   0.026   0.020   0.015   0.009
  50  2.027   0.384   0.074   0.476   0.463   0.460   0.016   0.035   0.034
              0.014   0.017   0.019   0.025   0.010
  51  2.037   0.383   0.073   0.467   0.464   0.482   0.029   0.034   0.017
              0.013   0.024   0.020   0.018   0.013
  52  2.027   0.382   0.074   0.471   0.463   0.465   0.026   0.035   0.023
              0.010   0.022   0.020   0.020   0.016
  53  2.010   0.382   0.075   0.462   0.459   0.463   0.035   0.036   0.017
              0.012   0.026   0.019   0.014   0.009
  54  2.025   0.383   0.074   0.466   0.459   0.474   0.034   0.036   0.015
              0.015   0.026   0.019   0.015   0.009
  55  2.013   0.382   0.075   0.467   0.459   0.462   0.017   0.036   0.035
              0.013   0.015   0.020   0.026   0.009
  56  2.011   0.382   0.075   0.465   0.460   0.461   0.017   0.036   0.035
              0.014   0.014   0.019   0.026   0.008
  57  2.053   0.387   0.072   0.477   0.465   0.486   0.024   0.033   0.020
              0.010   0.023   0.019   0.020   0.016
  58  2.027   0.383   0.074   0.476   0.463   0.462   0.022   0.035   0.027
              0.010   0.020   0.019   0.022   0.015
  60  2.006   0.383   0.075   0.460   0.458   0.462   0.018   0.036   0.035
              0.012   0.014   0.019   0.026   0.008
  61  2.005   0.383   0.075   0.464   0.458   0.458   0.029   0.037   0.024
              0.007   0.021   0.019   0.018   0.013
  62  2.011   0.383   0.075   0.461   0.459   0.466   0.027   0.036   0.024
              0.008   0.021   0.019   0.019   0.013
  63  2.011   0.382   0.075   0.465   0.458   0.461   0.024   0.036   0.028
              0.008   0.019   0.019   0.021   0.013
  64  2.025   0.383   0.074   0.473   0.459   0.468   0.021   0.035   0.028
              0.009   0.019   0.019   0.022   0.015
  65  2.008   0.382   0.075   0.465   0.457   0.460   0.017   0.037   0.036
              0.013   0.014   0.019   0.026   0.007
  66  2.006   0.382   0.075   0.460   0.457   0.464   0.032   0.037   0.021
              0.010   0.023   0.019   0.016   0.010
  67  2.011   0.382   0.075   0.470   0.459   0.457   0.019   0.036   0.032
              0.011   0.016   0.019   0.024   0.011
  68  2.014   0.383   0.075   0.467   0.458   0.463   0.019   0.036   0.032
              0.009   0.017   0.019   0.024   0.012
  69  2.023   0.383   0.074   0.467   0.460   0.469   0.031   0.035   0.019
              0.010   0.024   0.019   0.017   0.013
  70  2.050   0.387   0.072   0.471   0.465   0.489   0.032   0.033   0.013
              0.015   0.025   0.019   0.017   0.012
  71  2.007   0.382   0.075   0.466   0.457   0.459   0.018   0.037   0.034
              0.012   0.014   0.019   0.025   0.008
  72  2.018   0.384   0.074   0.459   0.462   0.471   0.034   0.035   0.017
              0.013   0.025   0.019   0.016   0.009
  73  2.028   0.383   0.074   0.463   0.463   0.476   0.034   0.035   0.015
              0.015   0.026   0.019   0.015   0.009
  74  2.006   0.382   0.075   0.464   0.456   0.462   0.017   0.037   0.035
              0.012   0.014   0.019   0.026   0.008
  75  2.004   0.383   0.075   0.460   0.457   0.462   0.020   0.037   0.033
              0.009   0.015   0.019   0.024   0.011
  76  2.005   0.383   0.075   0.462   0.457   0.460   0.017   0.037   0.036
              0.013   0.013   0.019   0.026   0.007
  77  2.013   0.383   0.075   0.462   0.457   0.467   0.034   0.036   0.018
              0.013   0.025   0.019   0.015   0.008
  78  2.004   0.383   0.075   0.462   0.457   0.459   0.018   0.037   0.035
              0.012   0.014   0.019   0.025   0.008
  79  2.005   0.382   0.075   0.461   0.456   0.463   0.036   0.037   0.017
              0.013   0.026   0.019   0.013   0.007
  80  2.004   0.383   0.075   0.461   0.458   0.460   0.035   0.037   0.018
              0.012   0.026   0.019   0.014   0.008
  81  2.007   0.382   0.075   0.460   0.458   0.464   0.028   0.036   0.025
              0.008   0.021   0.019   0.019   0.013
[...]
    3.13808381    3.65861906    4.94626558   2      64  C
    0.16195046   -4.70825593    4.94640915   2      65  C
   -4.41843264   -1.96505022    4.94453410   2      66  C
    1.91765866    4.37867431    4.94618662   2      67  C
   -2.20969858    4.14387687    4.94553830   2      68  C
   -4.20727457    2.16318832    4.94648694   2      69  C
    4.66977431    1.29667144    4.94592872   2      70  C
   -0.87987741    4.63108425    4.94489409   2      71  C
   -4.68705822    0.82921394    4.94517767   2      72  C
    4.78796029   -0.12021916    4.94561721   2      73  C
    1.23703940    4.59709470    6.16709060   2      74  C
    2.20108810   -4.13295570    6.16864382   2      75  C
   -0.17325475    4.72569386    6.16785746   2      76  C
    4.69081654   -0.82894024    6.16839771   2      77  C
    0.86922262   -4.61581612    6.16850474   2      78  C
   -4.78102237    0.11996278    6.16753863   2      79  C
   -4.65035696   -1.29087552    6.16718061   2      80  C
   -3.81423511    2.76078299    6.16896636   2      81  C
   -1.93047308   -4.37757025    6.16690324   2      82  C
   -3.15071588   -3.65869518    6.16737672   2      83  C
   -2.81244917    3.76239943    6.16852013   2      84  C
    3.64944692    3.15851315    6.16870547   2      85  C
    4.41856681    1.96746574    6.17039243   2      86  C
    4.20124796   -2.15824769    6.16777285   2      87  C
   -2.03031784    1.15930657    3.47058501   1      88  Li
    4.78520477   -0.12218168    7.39137559   2      89  C
    0.16145448   -4.71025151    7.39024784   2      90  C
    4.64216780    1.28763733    7.39227531   2      91  C
   -0.87976756    4.63400778    7.39046131   2      92  C
    1.91652540    4.38072918    7.38911302   2      93  C
   -1.25033875   -4.59244205    7.38954822   2      94  C
   -4.42432623   -1.96821065    7.38983382   2      95  C
   -4.68928171    0.82759718    7.38973289   2      96  C
    3.13159173    3.65284623    7.39020324   2      97  C
    3.81410531   -2.75854011    7.39049131   2      98  C
   -2.20965953    4.14479906    7.39027650   2      99  C
   -3.66615573   -3.16436336    7.38965608   2     100  C
   -4.19687459    2.15636553    7.38989925   2     101  C
    2.80537463   -3.75254317    7.39027622   2     102  C
    4.40362383    1.96183663    8.61341463   2     103  C
    4.68972765   -0.83003330    8.61294023   2     104  C
    2.20216650   -4.13453787    8.61187380   2     105  C
    4.20231701   -2.16076579    8.61267055   2     106  C
    3.64408741    3.15675738    8.61194922   2     107  C
   -1.93146666   -4.37727180    8.61197286   2     108  C
    1.23844603    4.60572123    8.61106485   2     109  C
    0.87005454   -4.61632374    8.61186121   2     110  C
   -3.15255474   -3.65928106    8.61196987   2     111  C
   -0.17249983    4.73081345    8.61222011   2     112  C
   -4.65487265   -1.29229816    8.61203986   2     113  C
   -4.78557532    0.11863398    8.61174160   2     114  C
   -3.80959414    2.75583747    8.61203127   2     115  C
   -2.80804080    3.75695394    8.61214626   2     116  C

zmatrix: Z-matrix coordinates: (Ang ; rad )
zmatrix: (Fractional coordinates have been converted to cartesian)
cartesian block    1 (   116 atoms)
      3.13739398      3.66246070      0.05315926
     -1.24877201     -4.58915545      0.05403998
      4.63300663      1.28734647      0.05473920
      4.77574882     -0.12125458      0.05485274
      3.81596279     -2.76116917      0.05419176
      0.16260954     -4.70775267      0.05299775
     -3.66534391     -3.16252870      0.05363076
      1.92298732      4.39657281      0.05262093
     -4.42414862     -1.96696563      0.05356957
      2.80907025     -3.75699158      0.05228752
     -0.87795949      4.63091708      0.05408118
     -4.68949279      0.82655145      0.05345189
     -2.20665964      4.14127272      0.05387394
     -4.19573478      2.15461530      0.05323847
      0.96277054     -2.14394973      2.53901147
     -3.14983878     -3.65578714      1.27617680
      4.40322728      1.96371616      1.27590862
      2.20993868     -4.14796512      1.27503243
     -4.65040506     -1.29073603      1.27631844
     -4.78132243      0.11886963      1.27556471
      3.65539812      3.16814325      1.27656457
     -3.81273852      2.75895861      1.27418486
      4.19791462     -2.15864826      1.27711527
     -1.92902745     -4.37274058      1.27662252
      4.68435067     -0.82857153      1.27734424
      1.24488070      4.62603699      1.27748861
     -2.80906194      3.75831582      1.27530240
     -0.17108591      4.72787354      1.27677751
      0.87220428     -4.62047982      1.27564710
      1.20744208      2.13405271      1.54348971
      3.81540729     -2.76061544      2.49999442
      2.82150968     -3.77334991      2.49970563
     -3.66191100     -3.16060581      2.49934714
      3.14048311      3.66603318      2.50053939
     -4.41931085     -1.96566793      2.49863806
     -1.24880638     -4.58623498      2.49993912
     -4.69026816      0.82984244      2.49816570
      4.64094940      1.28902750      2.49748345
      0.16251541     -4.71380011      2.49955597
     -2.20847913      4.14227155      2.49858505
     -4.21237194      2.16529301      2.49752434
      1.92693549      4.40191148      2.50228304
     -0.87803776      4.62810430      2.49987193
      4.77872315     -0.12060719      2.49881001
      2.20925693     -4.14755239      3.72462154
     -1.92892223     -4.37323369      3.72283905
      4.19740181     -2.15752663      3.72345431
     -3.14812093     -3.65562870      3.72213777
      4.68688938     -0.82873956      3.72229197
      0.87241905     -4.62200931      3.72376210
      4.42983823      1.97412474      3.72107171
      3.65344204      3.16205669      3.72351175
     -4.64644744     -1.28963837      3.72141178
     -4.78168038      0.12053506      3.72169862
      1.23838661      4.60075533      3.72472775
     -0.17185470      4.72630396      3.72303866
     -3.83479096      2.77591100      3.72248325
     -2.81607978      3.76575472      3.72238350
      2.27585771      0.90711904      4.52344838
     -1.24850120     -4.58964532      4.94498166
     -3.66226263     -3.16178992      4.94496331
      3.81479608     -2.75851833      4.94625860
      2.80720226     -3.75406114      4.94763927
      3.13808381      3.65861906      4.94626558
      0.16195046     -4.70825593      4.94640915
     -4.41843264     -1.96505022      4.94453410
      1.91765866      4.37867431      4.94618662
     -2.20969858      4.14387687      4.94553830
     -4.20727457      2.16318832      4.94648694
      4.66977431      1.29667144      4.94592872
     -0.87987741      4.63108425      4.94489409
     -4.68705822      0.82921394      4.94517767
      4.78796029     -0.12021916      4.94561721
      1.23703940      4.59709470      6.16709060
      2.20108810     -4.13295570      6.16864382
     -0.17325475      4.72569386      6.16785746
      4.69081654     -0.82894024      6.16839771
      0.86922262     -4.61581612      6.16850474
     -4.78102237      0.11996278      6.16753863
     -4.65035696     -1.29087552      6.16718061
     -3.81423511      2.76078299      6.16896636
     -1.93047308     -4.37757025      6.16690324
     -3.15071588     -3.65869518      6.16737672
     -2.81244917      3.76239943      6.16852013
      3.64944692      3.15851315      6.16870547
      4.41856681      1.96746574      6.17039243
      4.20124796     -2.15824769      6.16777285
     -2.03031784      1.15930657      3.47058501
      4.78520477     -0.12218168      7.39137559
      0.16145448     -4.71025151      7.39024784
      4.64216780      1.28763733      7.39227531
     -0.87976756      4.63400778      7.39046131
      1.91652540      4.38072918      7.38911302
     -1.25033875     -4.59244205      7.38954822
     -4.42432623     -1.96821065      7.38983382
     -4.68928171      0.82759718      7.38973289
      3.13159173      3.65284623      7.39020324
      3.81410531     -2.75854011      7.39049131
     -2.20965953      4.14479906      7.39027650
     -3.66615573     -3.16436336      7.38965608
     -4.19687459      2.15636553      7.38989925
      2.80537463     -3.75254317      7.39027622
      4.40362383      1.96183663      8.61341463
      4.68972765     -0.83003330      8.61294023
      2.20216650     -4.13453787      8.61187380
      4.20231701     -2.16076579      8.61267055
      3.64408741      3.15675738      8.61194922
     -1.93146666     -4.37727180      8.61197286
      1.23844603      4.60572123      8.61106485
      0.87005454     -4.61632374      8.61186121
     -3.15255474     -3.65928106      8.61196987
     -0.17249983      4.73081345      8.61222011
     -4.65487265     -1.29229816      8.61203986
     -4.78557532      0.11863398      8.61174160
     -3.80959414      2.75583747      8.61203127
     -2.80804080      3.75695394      8.61214626


Z-matrix Symbol Section -------
Variables
Constants
------------ End of Z-matrix Information


coxmol: Writing XMOL coordinates into file C112.xyz                                                        
siesta: PDOS info: 
siesta: e1, e2, sigma, nhist:   -24.00 eV   15.00 eV    0.10 eV   1000

siesta: Program's energy decomposition (eV):
siesta: Ebs     =     -6816.632337
siesta: Eions   =     35446.087679
siesta: Ena     =     11783.732990
siesta: Ekin    =     12836.910681
siesta: Enl     =      -498.915291
siesta: DEna    =      -839.406795
siesta: DUscf   =        49.629012
siesta: DUext   =         0.000000
siesta: Exc     =     -5289.786661
siesta: eta*DQ  =         0.000000
siesta: Emadel  =         0.000000
siesta: Emeta   =         0.000000
siesta: Emolmec =         0.000000
siesta: Ekinion =         0.000000
siesta: Eharris =    -17403.923749
siesta: Etot    =    -17403.923744
siesta: FreeEng =    -17403.952242

siesta: Final energy (eV):
siesta:  Band Struct. =   -6816.632337
siesta:       Kinetic =   12836.910681
siesta:       Hartree =  499153.679715
siesta:    Ext. field =       0.000000
siesta:   Exch.-corr. =   -5289.786661
siesta:  Ion-electron =-1011057.159333
siesta:       Ion-ion =  486952.431854
siesta:       Ekinion =       0.000000
siesta:         Total =  -17403.923744

siesta: Stress tensor (static) (eV/Ang**3):
siesta:     0.000006    0.000007    0.000001
siesta:     0.000007    0.000003    0.000000
siesta:     0.000001    0.000000   -0.000226

siesta: Cell volume =      93561.705545 Ang**3

siesta: Pressure (static):
siesta:                Solid            Molecule  Units
siesta:           0.00000079          0.00000079  Ry/Bohr**3
siesta:           0.00007228          0.00007228  eV/Ang**3
siesta:           0.11580414          0.11580414  kBar
(Free)E+ p_basis*V_orbitals  =      -17341.305525
(Free)Eharris+ p_basis*V_orbitals  =      -17341.305530

siesta: Total spin polarization (Qup-Qdown) =   -0.359314

siesta: Electric dipole (a.u.)  =    0.282428    0.234617    0.000000
siesta: Electric dipole (Debye) =    0.717862    0.596337    0.000000

Hirshfeld Net Atomic Populations:
Atom #    Qatom  Species
     1   -0.005  C                   
     2   -0.005  C                   
     3   -0.006  C                   
     4   -0.007  C                   
     5   -0.006  C                   
     6   -0.005  C                   
     7   -0.006  C                   
     8   -0.004  C                   
     9   -0.006  C                   
    10   -0.004  C                   
    11   -0.005  C                   
    12   -0.006  C                   
    13   -0.007  C                   
    14   -0.006  C                   
    15    0.191  Li                  
    16   -0.007  C                   
    17   -0.004  C                   
    18   -0.006  C                   
    19   -0.006  C                   
    20   -0.005  C                   
    21   -0.008  C                   
    22   -0.004  C                   
    23   -0.005  C                   
    24   -0.005  C                   
    25   -0.007  C                   
    26   -0.012  C                   
    27   -0.005  C                   
    28   -0.005  C                   
    29   -0.005  C                   
    30    0.152  Li                  
    31   -0.005  C                   
    32   -0.013  C                   
    33   -0.007  C                   
    34   -0.007  C                   
    35   -0.006  C                   
    36   -0.005  C                   
    37   -0.005  C                   
    38   -0.004  C                   
    39   -0.008  C                   
    40   -0.006  C                   
    41   -0.009  C                   
    42   -0.009  C                   
    43   -0.005  C                   
    44   -0.006  C                   
    45   -0.007  C                   
    46   -0.006  C                   
    47   -0.005  C                   
    48   -0.007  C                   
    49   -0.006  C                   
    50   -0.005  C                   
    51   -0.010  C                   
    52   -0.005  C                   
    53   -0.005  C                   
    54   -0.006  C                   
    55   -0.005  C                   
    56   -0.006  C                   
    57   -0.014  C                   
    58   -0.007  C                   
    59    0.157  Li                  
    60   -0.005  C                   
    61   -0.007  C                   
    62   -0.005  C                   
    63   -0.005  C                   
    64   -0.006  C                   
    65   -0.005  C                   
    66   -0.006  C                   
    67   -0.005  C                   
    68   -0.005  C                   
    69   -0.005  C                   
    70   -0.013  C                   
    71   -0.007  C                   
    72   -0.004  C                   
    73   -0.006  C                   
    74   -0.007  C                   
    75   -0.006  C                   
    76   -0.007  C                   
    77   -0.005  C                   
    78   -0.006  C                   
    79   -0.006  C                   
    80   -0.005  C                   
    81   -0.004  C                   
    82   -0.006  C                   
    83   -0.006  C                   
    84   -0.005  C                   
    85   -0.005  C                   
    86   -0.004  C                   
    87   -0.006  C                   
    88    0.201  Li                  
    89   -0.006  C                   
    90   -0.007  C                   
    91   -0.006  C                   
    92   -0.008  C                   
    93   -0.007  C                   
    94   -0.006  C                   
    95   -0.006  C                   
    96   -0.006  C                   
    97   -0.007  C                   
    98   -0.007  C                   
    99   -0.008  C                   
   100   -0.006  C                   
   101   -0.007  C                   
   102   -0.008  C                   
   103   -0.007  C                   
   104   -0.008  C                   
   105   -0.006  C                   
   106   -0.008  C                   
   107   -0.007  C                   
   108   -0.006  C                   
   109   -0.006  C                   
   110   -0.006  C                   
   111   -0.006  C                   
   112   -0.006  C                   
   113   -0.005  C                   
   114   -0.007  C                   
   115   -0.007  C                   
   116   -0.007  C                   

Voronoi Net Atomic Populations:
Atom #    Qatom  Species
     1   -0.009  C                   
     2   -0.009  C                   
     3   -0.003  C                   
     4   -0.010  C                   
     5   -0.006  C                   
     6   -0.001  C                   
     7   -0.007  C                   
     8   -0.008  C                   
     9   -0.007  C                   
    10   -0.004  C                   
    11   -0.006  C                   
    12   -0.007  C                   
    13   -0.007  C                   
    14   -0.006  C                   
    15    0.229  Li                  
    16   -0.006  C                   
    17   -0.004  C                   
    18   -0.010  C                   
    19   -0.003  C                   
    20   -0.007  C                   
    21   -0.016  C                   
    22   -0.004  C                   
    23   -0.004  C                   
    24   -0.005  C                   
    25   -0.009  C                   
    26   -0.027  C                   
    27   -0.004  C                   
    28   -0.003  C                   
    29   -0.009  C                   
    30    0.177  Li                  
    31   -0.006  C                   
    32   -0.024  C                   
    33   -0.006  C                   
    34   -0.009  C                   
    35   -0.005  C                   
    36   -0.008  C                   
    37   -0.008  C                   
    38   -0.001  C                   
    39   -0.012  C                   
    40   -0.006  C                   
    41   -0.015  C                   
    42   -0.012  C                   
    43   -0.005  C                   
    44   -0.007  C                   
    45   -0.011  C                   
    46   -0.005  C                   
    47   -0.004  C                   
    48   -0.006  C                   
    49   -0.008  C                   
    50   -0.010  C                   
    51   -0.016  C                   
    52   -0.006  C                   
    53   -0.003  C                   
    54   -0.013  C                   
    55   -0.007  C                   
    56   -0.003  C                   
    57   -0.026  C                   
    58   -0.011  C                   
    59    0.181  Li                  
    60   -0.010  C                   
    61   -0.008  C                   
    62   -0.005  C                   
    63   -0.005  C                   
    64   -0.010  C                   
    65   -0.001  C                   
    66   -0.005  C                   
    67   -0.007  C                   
    68   -0.004  C                   
    69   -0.007  C                   
    70   -0.023  C                   
    71   -0.008  C                   
    72   -0.006  C                   
    73   -0.013  C                   
    74   -0.010  C                   
    75   -0.007  C                   
    76   -0.004  C                   
    77   -0.005  C                   
    78   -0.005  C                   
    79   -0.008  C                   
    80   -0.003  C                   
    81   -0.003  C                   
    82   -0.007  C                   
    83   -0.005  C                   
    84   -0.005  C                   
    85   -0.006  C                   
    86   -0.004  C                   
    87   -0.006  C                   
    88    0.238  Li                  
    89   -0.008  C                   
    90   -0.003  C                   
    91   -0.004  C                   
    92   -0.009  C                   
    93   -0.007  C                   
    94   -0.008  C                   
    95   -0.006  C                   
    96   -0.006  C                   
    97   -0.006  C                   
    98   -0.007  C                   
    99   -0.007  C                   
   100   -0.006  C                   
   101   -0.006  C                   
   102   -0.007  C                   
   103   -0.006  C                   
   104   -0.009  C                   
   105   -0.007  C                   
   106   -0.007  C                   
   107   -0.006  C                   
   108   -0.007  C                   
   109   -0.009  C                   
   110   -0.006  C                   
   111   -0.005  C                   
   112   -0.003  C                   
   113   -0.001  C                   
   114   -0.011  C                   
   115   -0.007  C                   
   116   -0.006  C                   
>> End of run:  12-SEP-2019  15:08:30
