Siesta Version:                                        siesta-3.1
Architecture  : ifort12-intelmpi
Compiler flags: mpif90 -fc=ifort -I/opt/intel/cmkl/12.1.0/include/ -I/opt/intel/cmkl/12.1.0/include/intel64/lp64/ -g -O2 -xSSE4.2
PARALLEL version

* Running on  192 nodes in parallel
>> Start of run:  21-DEC-2012  12:55:07

                           ***********************       
                           *  WELCOME TO SIESTA  *       
                           ***********************       

reinit: Reading from standard input
************************** Dump of input data file ****************************
SystemName          nanotube (7,7)
SystemLabel         C112
NumberOfAtoms       113
NumberOfSpecies     2
WriteMullikenPop    1
%block ChemicalSpeciesLabel
 1  3  Li
 2  6  C
%endblock ChemicalSpeciesLabel
PAO.BasisSize  DZP
PAO.EnergyShift  0.05 eV
MeshCutoff       150.0 Ry
#kgrid_cutoff     5.0 Bohr
%block kgrid_Monkhorst_Pack
  1  0  0   0.5
  0  1  0   0.5
  0  0  32  0.5
%endblock kgrid_Monkhorst_Pack
MaxSCFIterations       150
#Diag.ParallelOverK   .true.
SolutionMethod         diagon
NetCharge     0.00
DM.NumberPulay    4
DM.MixingWeight   0.3
DM.UseSaveDM      .true.
NeglNonOverlapInt False
AtomicCoordinatesFormat  NotScaledCartesianAng
#AtomicCoordinatesAndAtomicSpecies < nano.xyz
#AtomCoorFormatOut Fractional
XC.functional=GGA
XC.authors=PBE
ZM.UnitsLength = Ang
%block Zmatrix
cartesian
  2  -1.085801  -4.702481   0.015035  1  1  1
  2   0.349467  -4.810672   0.015481  1  1  1
  2   3.013837  -3.785252   0.015500  1  1  1
  2  -4.825414   0.720619   0.015606  1  1  1
  2  -3.558597  -3.278842   0.015621  1  1  1
  2  -4.378168  -2.095930   0.015661  1  1  1
  2   4.005287  -2.741966   0.015884  1  1  1
  2  -4.393425   2.094130   0.016161  1  1  1
  2   4.866647  -0.023881   0.016625  1  1  1
  2  -2.419058   4.160810   0.016853  1  1  1
  2   4.653466   1.399766   0.016930  1  1  1
  2   3.030609   3.750646   0.017054  1  1  1
  2  -1.073982   4.678486   0.017153  1  1  1
  2   1.779752   4.464981   0.017472  1  1  1
  2  -4.876573  -0.003207   1.251487  1  1  1
  2  -0.353366   4.786526   1.251621  1  1  1
  2   1.084190   4.679911   1.251643  1  1  1
  2   1.067004  -4.705619   1.251748  1  1  1
  2  -4.650008  -1.424271   1.251821  1  1  1
  2   2.409765  -4.187064   1.251832  1  1  1
  2  -3.024585   3.757886   1.251892  1  1  1
  2  -1.777959  -4.489639   1.251953  1  1  1
  2  -3.024108  -3.769299   1.252005  1  1  1
  2  -4.020687   2.717038   1.252130  1  1  1
  2   3.566710   3.259624   1.252263  1  1  1
  2   4.808326  -0.746466   1.252562  1  1  1
  2   4.373607  -2.118507   1.252574  1  1  1
  2   4.384681   2.074152   1.252628  1  1  1
  2   1.782767   4.467535   2.484748  1  1  1
  2  -1.074543   4.676828   2.485056  1  1  1
  2  -4.390293   2.091671   2.487541  1  1  1
  2   3.032423   3.751297   2.487703  1  1  1
  2  -2.418979   4.158502   2.487795  1  1  1
  2  -1.085923  -4.706444   2.488115  1  1  1
  2  -4.824570   0.719674   2.488156  1  1  1
  2   4.651210   1.398982   2.488211  1  1  1
  2  -4.377488  -2.095760   2.488436  1  1  1
  2   0.349768  -4.815956   2.488678  1  1  1
  2   3.011232  -3.784704   2.488812  1  1  1
  2   4.866099  -0.023983   2.488907  1  1  1
  2  -3.556566  -3.278030   2.488925  1  1  1
  2   4.001788  -2.740375   2.489059  1  1  1
  2  -0.354142   4.789322   3.722036  1  1  1
  2   1.089099   4.688121   3.722196  1  1  1
  2  -3.022539   3.751878   3.724204  1  1  1
  2   3.565774   3.256015   3.724436  1  1  1
  2  -4.877467  -0.003244   3.724664  1  1  1
  2  -4.018453   2.712658   3.725254  1  1  1
  2  -3.023137  -3.769341   3.725256  1  1  1
  2   1.067333  -4.711337   3.725270  1  1  1
  2  -4.650803  -1.424366   3.725286  1  1  1
  2   2.409256  -4.189466   3.725325  1  1  1
  2   4.384619   2.072274   3.725455  1  1  1
  2  -1.778204  -4.492720   3.725565  1  1  1
  2   4.370330  -2.116346   3.725703  1  1  1
  2   4.807787  -0.745244   3.726118  1  1  1
  2  -3.556128  -3.277066   4.961865  1  1  1
  2  -4.377520  -2.095108   4.961910  1  1  1
  2   3.010905  -3.784509   4.961999  1  1  1
  2  -1.085895  -4.706551   4.962123  1  1  1
  2  -4.825947   0.719284   4.962187  1  1  1
  2   3.999804  -2.738788   4.962286  1  1  1
  2  -4.390106   2.090430   4.962554  1  1  1
  2   0.349777  -4.816718   4.962563  1  1  1
  2   4.653159   1.399526   4.963202  1  1  1
  2   4.867263  -0.023396   4.963204  1  1  1
  2  -2.420665   4.151019   4.963716  1  1  1
  2   3.035785   3.747450   4.964001  1  1  1
  2  -1.076321   4.678632   4.964140  1  1  1
  2   1.789333   4.477791   4.964294  1  1  1
  1   0.266403   2.780559   4.970366  1  1  1
  2  -3.024029  -3.768768   6.198897  1  1  1
  2  -1.778099  -4.489775   6.198981  1  1  1
  2  -4.651603  -1.423847   6.199011  1  1  1
  2   2.409749  -4.188392   6.199213  1  1  1
  2   1.067093  -4.707392   6.199285  1  1  1
  2   4.371046  -2.116385   6.199474  1  1  1
  2  -4.879426  -0.002510   6.199491  1  1  1
  2   4.808477  -0.745174   6.200098  1  1  1
  2  -4.022414   2.714657   6.200573  1  1  1
  2   4.388686   2.073802   6.201126  1  1  1
  2  -3.024367   3.752271   6.202386  1  1  1
  2   3.568256   3.256975   6.202897  1  1  1
  2  -0.354287   4.785929   6.206152  1  1  1
  2   1.088675   4.684432   6.206477  1  1  1
  2  -3.558275  -3.278100   7.435253  1  1  1
  2   3.013383  -3.785076   7.435641  1  1  1
  2  -4.378201  -2.095384   7.435839  1  1  1
  2  -1.085719  -4.702395   7.435906  1  1  1
  2   4.003238  -2.740197   7.435997  1  1  1
  2   0.349657  -4.811090   7.436093  1  1  1
  2  -4.828255   0.720666   7.436511  1  1  1
  2   4.868421  -0.023352   7.437325  1  1  1
  2  -4.395247   2.093812   7.437941  1  1  1
  2   4.656748   1.400595   7.438283  1  1  1
  2  -2.420211   4.157484   7.439043  1  1  1
  2   3.033652   3.749963   7.440088  1  1  1
  2  -1.074966   4.673083   7.442687  1  1  1
  2   1.782391   4.463136   7.443687  1  1  1
  2  -1.778439  -4.487808   8.671927  1  1  1
  2  -4.650034  -1.423629   8.672190  1  1  1
  2  -3.025509  -3.769459   8.672252  1  1  1
  2   2.410664  -4.186963   8.672261  1  1  1
  2   1.067036  -4.703126   8.672423  1  1  1
  2  -4.877233  -0.002691   8.672672  1  1  1
  2   4.373794  -2.117497   8.672961  1  1  1
  2   4.808855  -0.745886   8.673213  1  1  1
  2  -4.022626   2.717970   8.673546  1  1  1
  2   4.387851   2.074781   8.674326  1  1  1
  2  -3.025516   3.757690   8.675077  1  1  1
  2   3.567766   3.258843   8.675706  1  1  1
  2  -0.353511   4.782720   8.675969  1  1  1
  2   1.083668   4.676567   8.676410  1  1  1
%endblock Zmatrix
LatticeConstant       98.931149 Ang
%block LatticeParameters
  1.0 1.0 0.1 90. 90. 90.   #14.8921728
%endblock LatticeParameters
WriteCoorXmol     True
WriteForces .true.
WriteMullikenPop     1
#SaveDeltaRho                  .true.
%block ProjectedDensityOfStates
   -24.00  15.00  0.100  1000  eV
%endblock ProjectedDensityOfStates
#MD.TypeOfRun           cg               # Type of dynamics: Conjugate gradients
#MD.NumCGsteps          320              # number of CG steps
#MD.MaxCGDispl          0.15 Ang
MD.MaxForceTol         0.04 eV/Ang
MD.UseSaveXV           yes
MD.VariableCell        .false.
#HarrisFunctional T
WriteCoorStep      .true.
WriteForces        .true.
WriteMDHistory     .true.
MD.UseSaveXV       T
MD.TypeOfRun         Nose
MD.InitialTemperature 50 K
MD.TargetTemperature  50 K
MD.Initial.Time.Step      1
MD.Final.Time.Step        300
MD.Length.Time.Step       1.5 fs
************************** End of input data file *****************************

reinit: -----------------------------------------------------------------------
reinit: System Name: nanotube (7,7
reinit: -----------------------------------------------------------------------
reinit: System Label: C112                                                        
reinit: -----------------------------------------------------------------------

initatom: Reading input for the pseudopotentials and atomic orbitals ----------
 Species number:            1  Label: Li Atomic number:           3
 Species number:            2  Label: C Atomic number:           6
Ground state valence configuration:   2s01
Reading pseudopotential information in formatted form from Li.psf

Valence configuration for pseudopotential generation:
2s( 1.00) rc: 2.28
2p( 0.00) rc: 2.28
3d( 0.00) rc: 2.59
4f( 0.00) rc: 2.59
Ground state valence configuration:   2s02  2p02
Reading pseudopotential information in formatted form from C.psf

Valence configuration for pseudopotential generation:
2s( 2.00) rc: 1.56
2p( 2.00) rc: 1.56
3d( 0.00) rc: 1.56
4f( 0.00) rc: 1.56
For Li, standard SIESTA heuristics set lmxkb to 2
 (one more than the basis l, including polarization orbitals).
Use PS.lmax or PS.KBprojectors blocks to override.
For C, standard SIESTA heuristics set lmxkb to 3
 (one more than the basis l, including polarization orbitals).
Use PS.lmax or PS.KBprojectors blocks to override.

<basis_specs>
===============================================================================
Li                   Z=   3    Mass=  6.9400        Charge= 0.17977+309
Lmxo=0 Lmxkb= 2    BasisType=split      Semic=F
L=0  Nsemic=0  Cnfigmx=2
          n=1  nzeta=2  polorb=1
            splnorm:   0.15000    
               vcte:    0.0000    
               rinn:    0.0000    
                rcs:    0.0000      0.0000    
            lambdas:    1.0000      1.0000    
-------------------------------------------------------------------------------
L=0  Nkbl=1  erefs: 0.17977+309
L=1  Nkbl=1  erefs: 0.17977+309
L=2  Nkbl=1  erefs: 0.17977+309
===============================================================================
</basis_specs>

atom: Called for Li                    (Z =   3)

read_vps: Pseudopotential generation method:
read_vps: ATM 3.2.2 Troullier-Martins                       
Total valence charge:    1.00000

read_vps: Pseudopotential includes a core correction:
read_vps: Pseudo-core for xc-correction

xc_check: Exchange-correlation functional:
xc_check: GGA Perdew, Burke & Ernzerhof 1996
xc_check: WARNING: Pseudopotential generated with Ceperley-Alder functional
V l=0 = -2*Zval/r beyond r=  2.2278
V l=1 = -2*Zval/r beyond r=  2.2278
V l=2 = -2*Zval/r beyond r=  2.5245
All V_l potentials equal beyond r=  2.4932
This should be close to max(r_c) in ps generation
All pots = -2*Zval/r beyond r=  2.5245

VLOCAL1: 99.0% of the norm of Vloc inside      6.983 Ry
VLOCAL1: 99.9% of the norm of Vloc inside     15.915 Ry
atom: Maximum radius for 4*pi*r*r*local-pseudopot. charge    2.89679
atom: Maximum radius for r*vlocal+2*Zval:    2.46219
GHOST: No ghost state for L =  0
GHOST: No ghost state for L =  1
GHOST: No ghost state for L =  2

KBgen: Kleinman-Bylander projectors: 
   l= 0   rc=  2.687416   el= -0.210658   Ekb=  1.698673   kbcos=  0.232208
   l= 1   rc=  2.755470   el= -0.081811   Ekb= -1.099939   kbcos= -0.154230
   l= 2   rc=  2.860793   el=  0.002001   Ekb= -0.212236   kbcos= -0.030869

KBgen: Total number of  Kleinman-Bylander projectors:    9
atom: -------------------------------------------------------------------------

atom: SANKEY-TYPE ORBITALS:
atom: Selected multiple-zeta basis: split     

SPLIT: Orbitals with angular momentum L= 0

SPLIT: Basis orbitals for state 2s

SPLIT: PAO cut-off radius determined from an
SPLIT: energy shift=  0.003675 Ry

   izeta = 1
                 lambda =    1.000000
                     rc =    9.987207
                 energy =   -0.207290
                kinetic =    0.152165
    potential(screened) =   -0.359455
       potential(ionic) =   -0.537774

   izeta = 2
                 rmatch =    8.383698
              splitnorm =    0.150000
                 energy =   -0.184673
                kinetic =    0.225828
    potential(screened) =   -0.410501
       potential(ionic) =   -0.590158

POLgen: Perturbative polarization orbital with L=  1

POLgen: Polarization orbital for state 2s

   izeta = 1
                     rc =    9.987207
                 energy =   -0.015537
                kinetic =    0.307793
    potential(screened) =   -0.323330
       potential(ionic) =   -0.503957
atom: Total number of Sankey-type orbitals:  5

atm_pop: Valence configuration (for local Pseudopot. screening):
 2s( 1.00)                                                            
Vna: chval, zval:    1.00000   1.00000

Vna:  Cut-off radius for the neutral-atom potential:   9.987207
comcore: Pseudo-core radius Rcore=  3.494364

atom: _________________________________________________________________________

<basis_specs>
===============================================================================
C                    Z=   6    Mass=  12.010        Charge= 0.17977+309
Lmxo=1 Lmxkb= 3    BasisType=split      Semic=F
L=0  Nsemic=0  Cnfigmx=2
          n=1  nzeta=2  polorb=0
            splnorm:   0.15000    
               vcte:    0.0000    
               rinn:    0.0000    
                rcs:    0.0000      0.0000    
            lambdas:    1.0000      1.0000    
L=1  Nsemic=0  Cnfigmx=2
          n=1  nzeta=2  polorb=1
            splnorm:   0.15000    
               vcte:    0.0000    
               rinn:    0.0000    
                rcs:    0.0000      0.0000    
            lambdas:    1.0000      1.0000    
-------------------------------------------------------------------------------
L=0  Nkbl=1  erefs: 0.17977+309
L=1  Nkbl=1  erefs: 0.17977+309
L=2  Nkbl=1  erefs: 0.17977+309
L=3  Nkbl=1  erefs: 0.17977+309
===============================================================================
</basis_specs>

atom: Called for C                     (Z =   6)

read_vps: Pseudopotential generation method:
read_vps: ATM 3.2.2 Troullier-Martins                       
Total valence charge:    4.00000

xc_check: Exchange-correlation functional:
xc_check: GGA Perdew, Burke & Ernzerhof 1996
xc_check: WARNING: Pseudopotential generated with Ceperley-Alder functional
V l=0 = -2*Zval/r beyond r=  1.4851
V l=1 = -2*Zval/r beyond r=  1.5227
V l=2 = -2*Zval/r beyond r=  1.5038
V l=3 = -2*Zval/r beyond r=  1.5038
All V_l potentials equal beyond r=  1.4851
This should be close to max(r_c) in ps generation
All pots = -2*Zval/r beyond r=  1.5227

VLOCAL1: 99.0% of the norm of Vloc inside     19.682 Ry
VLOCAL1: 99.9% of the norm of Vloc inside     44.856 Ry
atom: Maximum radius for 4*pi*r*r*local-pseudopot. charge    1.79142
atom: Maximum radius for r*vlocal+2*Zval:    1.54183
GHOST: No ghost state for L =  0
GHOST: No ghost state for L =  1
GHOST: No ghost state for L =  2
GHOST: No ghost state for L =  3

KBgen: Kleinman-Bylander projectors: 
   l= 0   rc=  1.661951   el= -1.018404   Ekb=  5.293836   kbcos=  0.316343
   l= 1   rc=  1.661951   el= -0.410650   Ekb= -4.212038   kbcos= -0.362187
   l= 2   rc=  1.747182   el=  0.001971   Ekb= -1.050542   kbcos= -0.008768
   l= 3   rc=  1.791422   el=  0.003065   Ekb= -0.424986   kbcos= -0.001135

KBgen: Total number of  Kleinman-Bylander projectors:   16
atom: -------------------------------------------------------------------------

atom: SANKEY-TYPE ORBITALS:
atom: Selected multiple-zeta basis: split     

SPLIT: Orbitals with angular momentum L= 0

SPLIT: Basis orbitals for state 2s

SPLIT: PAO cut-off radius determined from an
SPLIT: energy shift=  0.003675 Ry

   izeta = 1
                 lambda =    1.000000
                     rc =    4.993604
                 energy =   -1.014679
                kinetic =    0.847599
    potential(screened) =   -1.862278
       potential(ionic) =   -5.430357

   izeta = 2
                 rmatch =    3.475094
              splitnorm =    0.150000
                 energy =   -0.877208
                kinetic =    1.311155
    potential(screened) =   -2.188363
       potential(ionic) =   -6.007556

SPLIT: Orbitals with angular momentum L= 1

SPLIT: Basis orbitals for state 2p

SPLIT: PAO cut-off radius determined from an
SPLIT: energy shift=  0.003675 Ry

   izeta = 1
                 lambda =    1.000000
                     rc =    6.253707
                 energy =   -0.407488
                kinetic =    2.447357
    potential(screened) =   -2.854846
       potential(ionic) =   -6.296089

   izeta = 2
                 rmatch =    3.653288
              splitnorm =    0.150000
                 energy =   -0.278569
                kinetic =    3.622055
    potential(screened) =   -3.900624
       potential(ionic) =   -7.724142

POLgen: Perturbative polarization orbital with L=  2

POLgen: Polarization orbital for state 2p

   izeta = 1
                     rc =    6.253707
                 energy =    1.050658
                kinetic =    2.216253
    potential(screened) =   -1.165595
       potential(ionic) =   -3.934689
atom: Total number of Sankey-type orbitals: 13

atm_pop: Valence configuration (for local Pseudopot. screening):
 2s( 2.00)                                                            
 2p( 2.00)                                                            
Vna: chval, zval:    4.00000   4.00000

Vna:  Cut-off radius for the neutral-atom potential:   6.253707

atom: _________________________________________________________________________

prinput: Basis input ----------------------------------------------------------

PAO.BasisType split     

%block ChemicalSpeciesLabel
    1    3 Li                      # Species index, atomic number, species label
    2    6 C                       # Species index, atomic number, species label
%endblock ChemicalSpeciesLabel

%block PAO.Basis                 # Define Basis set
Li                    1                    # Species label, number of l-shells
 n=2   0   2 P   1                   # n, l, Nzeta, Polarization, NzetaPol
   9.987      8.384   
   1.000      1.000   
C                     2                    # Species label, number of l-shells
 n=2   0   2                         # n, l, Nzeta 
   4.994      3.475   
   1.000      1.000   
 n=2   1   2 P   1                   # n, l, Nzeta, Polarization, NzetaPol
   6.254      3.653   
   1.000      1.000   
%endblock PAO.Basis

prinput: ----------------------------------------------------------------------

coor:   Atomic-coordinates input format  =     Cartesian coordinates
coor:                                          (in Angstroms)
read_Zmatrix: Length units: Ang       
read_Zmatrix: Angle  units: rad       
read_Zmatrix: Force tolerances:
read_Zmatrix:    for lengths =     0.001556 Ry/Bohr
read_Zmatrix:    for angles  =     0.003565 Ry/rad

read_Zmatrix: Maximum displacements:
read_Zmatrix:    for lengths =     0.200000 Bohr
read_Zmatrix:    for angles  =     0.003000 rad
%block Zmatrix
cartesian
  2  -1.085801  -4.702481   0.015035  1  1  1
  2   0.349467  -4.810672   0.015481  1  1  1
  2   3.013837  -3.785252   0.015500  1  1  1
  2  -4.825414   0.720619   0.015606  1  1  1
  2  -3.558597  -3.278842   0.015621  1  1  1
  2  -4.378168  -2.095930   0.015661  1  1  1
  2   4.005287  -2.741966   0.015884  1  1  1
  2  -4.393425   2.094130   0.016161  1  1  1
  2   4.866647  -0.023881   0.016625  1  1  1
  2  -2.419058   4.160810   0.016853  1  1  1
  2   4.653466   1.399766   0.016930  1  1  1
  2   3.030609   3.750646   0.017054  1  1  1
  2  -1.073982   4.678486   0.017153  1  1  1
  2   1.779752   4.464981   0.017472  1  1  1
  2  -4.876573  -0.003207   1.251487  1  1  1
  2  -0.353366   4.786526   1.251621  1  1  1
  2   1.084190   4.679911   1.251643  1  1  1
  2   1.067004  -4.705619   1.251748  1  1  1
  2  -4.650008  -1.424271   1.251821  1  1  1
  2   2.409765  -4.187064   1.251832  1  1  1
  2  -3.024585   3.757886   1.251892  1  1  1
  2  -1.777959  -4.489639   1.251953  1  1  1
  2  -3.024108  -3.769299   1.252005  1  1  1
  2  -4.020687   2.717038   1.252130  1  1  1
  2   3.566710   3.259624   1.252263  1  1  1
  2   4.808326  -0.746466   1.252562  1  1  1
  2   4.373607  -2.118507   1.252574  1  1  1
  2   4.384681   2.074152   1.252628  1  1  1
  2   1.782767   4.467535   2.484748  1  1  1
  2  -1.074543   4.676828   2.485056  1  1  1
  2  -4.390293   2.091671   2.487541  1  1  1
  2   3.032423   3.751297   2.487703  1  1  1
  2  -2.418979   4.158502   2.487795  1  1  1
  2  -1.085923  -4.706444   2.488115  1  1  1
  2  -4.824570   0.719674   2.488156  1  1  1
  2   4.651210   1.398982   2.488211  1  1  1
  2  -4.377488  -2.095760   2.488436  1  1  1
  2   0.349768  -4.815956   2.488678  1  1  1
  2   3.011232  -3.784704   2.488812  1  1  1
  2   4.866099  -0.023983   2.488907  1  1  1
  2  -3.556566  -3.278030   2.488925  1  1  1
  2   4.001788  -2.740375   2.489059  1  1  1
  2  -0.354142   4.789322   3.722036  1  1  1
  2   1.089099   4.688121   3.722196  1  1  1
  2  -3.022539   3.751878   3.724204  1  1  1
  2   3.565774   3.256015   3.724436  1  1  1
  2  -4.877467  -0.003244   3.724664  1  1  1
  2  -4.018453   2.712658   3.725254  1  1  1
  2  -3.023137  -3.769341   3.725256  1  1  1
  2   1.067333  -4.711337   3.725270  1  1  1
  2  -4.650803  -1.424366   3.725286  1  1  1
  2   2.409256  -4.189466   3.725325  1  1  1
  2   4.384619   2.072274   3.725455  1  1  1
  2  -1.778204  -4.492720   3.725565  1  1  1
  2   4.370330  -2.116346   3.725703  1  1  1
  2   4.807787  -0.745244   3.726118  1  1  1
  2  -3.556128  -3.277066   4.961865  1  1  1
  2  -4.377520  -2.095108   4.961910  1  1  1
  2   3.010905  -3.784509   4.961999  1  1  1
  2  -1.085895  -4.706551   4.962123  1  1  1
  2  -4.825947   0.719284   4.962187  1  1  1
  2   3.999804  -2.738788   4.962286  1  1  1
  2  -4.390106   2.090430   4.962554  1  1  1
  2   0.349777  -4.816718   4.962563  1  1  1
  2   4.653159   1.399526   4.963202  1  1  1
  2   4.867263  -0.023396   4.963204  1  1  1
  2  -2.420665   4.151019   4.963716  1  1  1
  2   3.035785   3.747450   4.964001  1  1  1
  2  -1.076321   4.678632   4.964140  1  1  1
  2   1.789333   4.477791   4.964294  1  1  1
  1   0.266403   2.780559   4.970366  1  1  1
  2  -3.024029  -3.768768   6.198897  1  1  1
  2  -1.778099  -4.489775   6.198981  1  1  1
  2  -4.651603  -1.423847   6.199011  1  1  1
  2   2.409749  -4.188392   6.199213  1  1  1
  2   1.067093  -4.707392   6.199285  1  1  1
  2   4.371046  -2.116385   6.199474  1  1  1
  2  -4.879426  -0.002510   6.199491  1  1  1
  2   4.808477  -0.745174   6.200098  1  1  1
  2  -4.022414   2.714657   6.200573  1  1  1
  2   4.388686   2.073802   6.201126  1  1  1
  2  -3.024367   3.752271   6.202386  1  1  1
  2   3.568256   3.256975   6.202897  1  1  1
  2  -0.354287   4.785929   6.206152  1  1  1
  2   1.088675   4.684432   6.206477  1  1  1
  2  -3.558275  -3.278100   7.435253  1  1  1
  2   3.013383  -3.785076   7.435641  1  1  1
  2  -4.378201  -2.095384   7.435839  1  1  1
  2  -1.085719  -4.702395   7.435906  1  1  1
  2   4.003238  -2.740197   7.435997  1  1  1
  2   0.349657  -4.811090   7.436093  1  1  1
  2  -4.828255   0.720666   7.436511  1  1  1
  2   4.868421  -0.023352   7.437325  1  1  1
  2  -4.395247   2.093812   7.437941  1  1  1
  2   4.656748   1.400595   7.438283  1  1  1
  2  -2.420211   4.157484   7.439043  1  1  1
  2   3.033652   3.749963   7.440088  1  1  1
  2  -1.074966   4.673083   7.442687  1  1  1
  2   1.782391   4.463136   7.443687  1  1  1
  2  -1.778439  -4.487808   8.671927  1  1  1
  2  -4.650034  -1.423629   8.672190  1  1  1
  2  -3.025509  -3.769459   8.672252  1  1  1
  2   2.410664  -4.186963   8.672261  1  1  1
  2   1.067036  -4.703126   8.672423  1  1  1
  2  -4.877233  -0.002691   8.672672  1  1  1
  2   4.373794  -2.117497   8.672961  1  1  1
  2   4.808855  -0.745886   8.673213  1  1  1
  2  -4.022626   2.717970   8.673546  1  1  1
  2   4.387851   2.074781   8.674326  1  1  1
  2  -3.025516   3.757690   8.675077  1  1  1
  2   3.567766   3.258843   8.675706  1  1  1
  2  -0.353511   4.782720   8.675969  1  1  1
  2   1.083668   4.676567   8.676410  1  1  1
%endblock Zmatrix

zmatrix: Z-matrix coordinates: (Ang ; rad )
zmatrix: (Fractional coordinates have been converted to cartesian)
cartesian block    1 (   113 atoms)
     -1.08580100     -4.70248100      0.01503500
      0.34946700     -4.81067200      0.01548100
      3.01383700     -3.78525200      0.01550000
     -4.82541400      0.72061900      0.01560600
     -3.55859700     -3.27884200      0.01562100
     -4.37816800     -2.09593000      0.01566100
      4.00528700     -2.74196600      0.01588400
     -4.39342500      2.09413000      0.01616100
      4.86664700     -0.02388100      0.01662500
     -2.41905800      4.16081000      0.01685300
      4.65346600      1.39976600      0.01693000
      3.03060900      3.75064600      0.01705400
     -1.07398200      4.67848600      0.01715300
      1.77975200      4.46498100      0.01747200
     -4.87657300     -0.00320700      1.25148700
     -0.35336600      4.78652600      1.25162100
      1.08419000      4.67991100      1.25164300
      1.06700400     -4.70561900      1.25174800
     -4.65000800     -1.42427100      1.25182100
      2.40976500     -4.18706400      1.25183200
     -3.02458500      3.75788600      1.25189200
     -1.77795900     -4.48963900      1.25195300
     -3.02410800     -3.76929900      1.25200500
     -4.02068700      2.71703800      1.25213000
      3.56671000      3.25962400      1.25226300
      4.80832600     -0.74646600      1.25256200
      4.37360700     -2.11850700      1.25257400
      4.38468100      2.07415200      1.25262800
      1.78276700      4.46753500      2.48474800
     -1.07454300      4.67682800      2.48505600
     -4.39029300      2.09167100      2.48754100
      3.03242300      3.75129700      2.48770300
     -2.41897900      4.15850200      2.48779500
     -1.08592300     -4.70644400      2.48811500
     -4.82457000      0.71967400      2.48815600
      4.65121000      1.39898200      2.48821100
     -4.37748800     -2.09576000      2.48843600
      0.34976800     -4.81595600      2.48867800
      3.01123200     -3.78470400      2.48881200
      4.86609900     -0.02398300      2.48890700
     -3.55656600     -3.27803000      2.48892500
      4.00178800     -2.74037500      2.48905900
     -0.35414200      4.78932200      3.72203600
      1.08909900      4.68812100      3.72219600
     -3.02253900      3.75187800      3.72420400
      3.56577400      3.25601500      3.72443600
     -4.87746700     -0.00324400      3.72466400
     -4.01845300      2.71265800      3.72525400
     -3.02313700     -3.76934100      3.72525600
      1.06733300     -4.71133700      3.72527000
     -4.65080300     -1.42436600      3.72528600
      2.40925600     -4.18946600      3.72532500
      4.38461900      2.07227400      3.72545500
     -1.77820400     -4.49272000      3.72556500
      4.37033000     -2.11634600      3.72570300
      4.80778700     -0.74524400      3.72611800
     -3.55612800     -3.27706600      4.96186500
     -4.37752000     -2.09510800      4.96191000
      3.01090500     -3.78450900      4.96199900
     -1.08589500     -4.70655100      4.96212300
     -4.82594700      0.71928400      4.96218700
      3.99980400     -2.73878800      4.96228600
     -4.39010600      2.09043000      4.96255400
      0.34977700     -4.81671800      4.96256300
      4.65315900      1.39952600      4.96320200
      4.86726300     -0.02339600      4.96320400
     -2.42066500      4.15101900      4.96371600
      3.03578500      3.74745000      4.96400100
     -1.07632100      4.67863200      4.96414000
      1.78933300      4.47779100      4.96429400
      0.26640300      2.78055900      4.97036600
     -3.02402900     -3.76876800      6.19889700
     -1.77809900     -4.48977500      6.19898100
     -4.65160300     -1.42384700      6.19901100
      2.40974900     -4.18839200      6.19921300
      1.06709300     -4.70739200      6.19928500
      4.37104600     -2.11638500      6.19947400
     -4.87942600     -0.00251000      6.19949100
      4.80847700     -0.74517400      6.20009800
     -4.02241400      2.71465700      6.20057300
      4.38868600      2.07380200      6.20112600
     -3.02436700      3.75227100      6.20238600
      3.56825600      3.25697500      6.20289700
     -0.35428700      4.78592900      6.20615200
      1.08867500      4.68443200      6.20647700
     -3.55827500     -3.27810000      7.43525300
      3.01338300     -3.78507600      7.43564100
     -4.37820100     -2.09538400      7.43583900
     -1.08571900     -4.70239500      7.43590600
      4.00323800     -2.74019700      7.43599700
      0.34965700     -4.81109000      7.43609300
     -4.82825500      0.72066600      7.43651100
      4.86842100     -0.02335200      7.43732500
     -4.39524700      2.09381200      7.43794100
      4.65674800      1.40059500      7.43828300
     -2.42021100      4.15748400      7.43904300
      3.03365200      3.74996300      7.44008800
     -1.07496600      4.67308300      7.44268700
      1.78239100      4.46313600      7.44368700
     -1.77843900     -4.48780800      8.67192700
     -4.65003400     -1.42362900      8.67219000
     -3.02550900     -3.76945900      8.67225200
      2.41066400     -4.18696300      8.67226100
      1.06703600     -4.70312600      8.67242300
     -4.87723300     -0.00269100      8.67267200
      4.37379400     -2.11749700      8.67296100
      4.80885500     -0.74588600      8.67321300
     -4.02262600      2.71797000      8.67354600
      4.38785100      2.07478100      8.67432600
     -3.02551600      3.75769000      8.67507700
      3.56776600      3.25884300      8.67570600
     -0.35351100      4.78272000      8.67596900
      1.08366800      4.67656700      8.67641000


Z-matrix Symbol Section -------
Variables
Constants
------------ End of Z-matrix Information


siesta: WARNING: XV file not found

siesta: Atomic coordinates (Bohr) and species
siesta:     -2.05187  -8.88640   0.02841  2        1
siesta:      0.66040  -9.09086   0.02925  2        2
siesta:      5.69533  -7.15309   0.02929  2        3
siesta:     -9.11871   1.36177   0.02949  2        4
siesta:     -6.72478  -6.19612   0.02952  2        5
siesta:     -8.27354  -3.96074   0.02960  2        6
siesta:      7.56890  -5.18157   0.03002  2        7
siesta:     -8.30237   3.95733   0.03054  2        8
siesta:      9.19663  -0.04513   0.03142  2        9
siesta:     -4.57136   7.86279   0.03185  2       10
siesta:      8.79378   2.64518   0.03199  2       11
siesta:      5.72702   7.08770   0.03223  2       12
siesta:     -2.02953   8.84106   0.03241  2       13
siesta:      3.36325   8.43759   0.03302  2       14
siesta:     -9.21539  -0.00606   2.36497  2       15
siesta:     -0.66777   9.04523   2.36522  2       16
siesta:      2.04882   8.84375   2.36526  2       17
siesta:      2.01635  -8.89233   2.36546  2       18
siesta:     -8.78725  -2.69148   2.36560  2       19
siesta:      4.55380  -7.91241   2.36562  2       20
siesta:     -5.71564   7.10138   2.36573  2       21
siesta:     -3.35986  -8.48419   2.36585  2       22
siesta:     -5.71474  -7.12295   2.36595  2       23
siesta:     -7.59800   5.13446   2.36618  2       24
siesta:      6.74011   6.15980   2.36644  2       25
siesta:      9.08642  -1.41062   2.36700  2       26
siesta:      8.26492  -4.00340   2.36702  2       27
siesta:      8.28585   3.91958   2.36712  2       28
siesta:      3.36894   8.44242   4.69550  2       29
siesta:     -2.03059   8.83793   4.69608  2       30
siesta:     -8.29645   3.95269   4.70077  2       31
siesta:      5.73045   7.08893   4.70108  2       32
siesta:     -4.57121   7.85843   4.70125  2       33
siesta:     -2.05210  -8.89389   4.70186  2       34
siesta:     -9.11712   1.35999   4.70194  2       35
siesta:      8.78952   2.64369   4.70204  2       36
siesta:     -8.27226  -3.96041   4.70246  2       37
siesta:      0.66097  -9.10084   4.70292  2       38
siesta:      5.69041  -7.15206   4.70317  2       39
siesta:      9.19560  -0.04532   4.70335  2       40
siesta:     -6.72094  -6.19458   4.70339  2       41
siesta:      7.56229  -5.17856   4.70364  2       42
siesta:     -0.66923   9.05051   7.03363  2       43
siesta:      2.05810   8.85927   7.03393  2       44
siesta:     -5.71177   7.09002   7.03773  2       45
siesta:      6.73834   6.15298   7.03817  2       46
siesta:     -9.21708  -0.00613   7.03860  2       47
siesta:     -7.59378   5.12618   7.03971  2       48
siesta:     -5.71290  -7.12302   7.03972  2       49
siesta:      2.01697  -8.90314   7.03974  2       50
siesta:     -8.78875  -2.69166   7.03977  2       51
siesta:      4.55284  -7.91695   7.03985  2       52
siesta:      8.28573   3.91603   7.04009  2       53
siesta:     -3.36032  -8.49001   7.04030  2       54
siesta:      8.25873  -3.99932   7.04056  2       55
siesta:      9.08540  -1.40831   7.04135  2       56
siesta:     -6.72011  -6.19276   9.37657  2       57
siesta:     -8.27232  -3.95918   9.37665  2       58
siesta:      5.68979  -7.15169   9.37682  2       59
siesta:     -2.05204  -8.89410   9.37706  2       60
siesta:     -9.11972   1.35925   9.37718  2       61
siesta:      7.55854  -5.17556   9.37737  2       62
siesta:     -8.29610   3.95034   9.37787  2       63
siesta:      0.66098  -9.10228   9.37789  2       64
siesta:      8.79320   2.64472   9.37910  2       65
siesta:      9.19780  -0.04421   9.37910  2       66
siesta:     -4.57440   7.84429   9.38007  2       67
siesta:      5.73680   7.08166   9.38061  2       68
siesta:     -2.03395   8.84134   9.38087  2       69
siesta:      3.38135   8.46180   9.38116  2       70
siesta:      0.50343   5.25450   9.39263  1       71
siesta:     -5.71459  -7.12194  11.71422  2       72
siesta:     -3.36012  -8.48445  11.71438  2       73
siesta:     -8.79026  -2.69068  11.71444  2       74
siesta:      4.55377  -7.91492  11.71482  2       75
siesta:      2.01651  -8.89569  11.71496  2       76
siesta:      8.26008  -3.99939  11.71531  2       77
siesta:     -9.22078  -0.00474  11.71534  2       78
siesta:      9.08671  -1.40818  11.71649  2       79
siesta:     -7.60126   5.12996  11.71739  2       80
siesta:      8.29342   3.91892  11.71843  2       81
siesta:     -5.71523   7.09077  11.72082  2       82
siesta:      6.74303   6.15479  11.72178  2       83
siesta:     -0.66951   9.04410  11.72793  2       84
siesta:      2.05730   8.85230  11.72855  2       85
siesta:     -6.72417  -6.19471  14.05060  2       86
siesta:      5.69447  -7.15276  14.05133  2       87
siesta:     -8.27360  -3.95970  14.05170  2       88
siesta:     -2.05171  -8.88624  14.05183  2       89
siesta:      7.56503  -5.17822  14.05200  2       90
siesta:      0.66076  -9.09165  14.05218  2       91
siesta:     -9.12408   1.36186  14.05297  2       92
siesta:      9.19999  -0.04413  14.05451  2       93
siesta:     -8.30582   3.95673  14.05568  2       94
siesta:      8.79998   2.64674  14.05632  2       95
siesta:     -4.57354   7.85651  14.05776  2       96
siesta:      5.73277   7.08641  14.05973  2       97
siesta:     -2.03139   8.83085  14.06465  2       98
siesta:      3.36823   8.43411  14.06654  2       99
siesta:     -3.36076  -8.48073  16.38757  2      100
siesta:     -8.78729  -2.69027  16.38807  2      101
siesta:     -5.71739  -7.12325  16.38819  2      102
siesta:      4.55550  -7.91222  16.38820  2      103
siesta:      2.01641  -8.88762  16.38851  2      104
siesta:     -9.21664  -0.00509  16.38898  2      105
siesta:      8.26528  -4.00149  16.38953  2      106
siesta:      9.08742  -1.40952  16.39000  2      107
siesta:     -7.60166   5.13622  16.39063  2      108
siesta:      8.29184   3.92077  16.39211  2      109
siesta:     -5.71740   7.10101  16.39353  2      110
siesta:      6.74210   6.15832  16.39471  2      111
siesta:     -0.66804   9.03803  16.39521  2      112
siesta:      2.04784   8.83743  16.39605  2      113

siesta: System type = chain     

initatomlists: Number of atoms, orbitals, and projectors:    113  1461  1801

siesta: ******************** Simulation parameters ****************************
siesta:
siesta: The following are some of the parameters of the simulation.
siesta: A complete list of the parameters used, including default values,
siesta: can be found in file out.fdf
siesta:
redata: Non-Collinear-spin run           =     F
redata: SpinPolarized (Up/Down) run      =     F
redata: Number of spin components        =     1
redata: Long output                      =     F
redata: Number of Atomic Species         =        2
redata: Charge density info will appear in .RHO file
redata: Write Mulliken Pop.              =     Atomic and Orbital charges
redata: Mesh Cutoff                      =   150.0000  Ry
redata: Net charge of the system         =     0.0000 |e|
redata: Max. number of SCF Iter          =      150
redata: Performing Pulay mixing using    =     4 iterations
redata: Mix DM in first SCF step ?       =     F
redata: Write Pulay info on disk?        =     F
redata: Discard 1st Pulay DM after  kick =     F
redata: New DM Mixing Weight             =     0.3000
redata: New DM Occupancy tolerance       = 0.000000000001
redata: No kicks to SCF
redata: DM Mixing Weight for Kicks       =     0.5000
redata: DM Tolerance for SCF             =     0.000100
redata: Require Energy convergence for SCF =     F
redata: DM Energy tolerance for SCF      =     0.000100 eV
redata: Require Harris convergence for SCF =     F
redata: DM Harris energy tolerance for SCF =     0.000100 eV
redata: Using Saved Data (generic)   =     F
redata: Use continuation files for DM    =     T
redata: Neglect nonoverlap interactions  =     F
redata: Method of Calculation            =     Diagonalization
redata: Divide and Conquer               =     T
redata: Electronic Temperature           =     0.0019  Ry
redata: Fix the spin of the system       =     F
redata: Dynamics option                  =     Nose thermostat MD run
redata: Initial MD time step             =        1
redata:   Final MD time step             =      300
redata: Length of MD time step           =     1.5000  fs
redata: Initial Temperature of MD run    =    50.0000  K
redata: Perform a MD quench              =     F
redata: Nose mass                        =   100.0000  Ry/fs**2
redata: Target Temperature               =    50.0000  Kelvin
redata: ***********************************************************************
Total number of electrons:   449.000000
Total ionic charge:   449.000000
 *** WARNING: Zmatrix form will be used only for input !!
 *** WARNING: Zmatrix form will be used only for input !!
 *** WARNING: Zmatrix form will be used only for input !!
 *** WARNING: Zmatrix form will be used only for input !!
 *** WARNING: Zmatrix form will be used only for input !!
 *** WARNING: Zmatrix form will be used only for input !!
 *** WARNING: Zmatrix form will be used only for input !!
 *** WARNING: Zmatrix form will be used only for input !!
 *** WARNING: Zmatrix form will be used only for input !!
 *** WARNING: Zmatrix form will be used only for input !!
 *** WARNING: Zmatrix form will be used only for input !!
 *** WARNING: Zmatrix form will be used only for input !!

* ProcessorY, Blocksize:   12   8

 *** WARNING: Zmatrix form will be used only for input !!
 *** WARNING: Zmatrix form will be used only for input !!
 *** WARNING: Zmatrix form will be used only for input !!
 *** WARNING: Zmatrix form will be used only for input !!
 *** WARNING: Zmatrix form will be used only for input !!
 *** WARNING: Zmatrix form will be used only for input !!
 *** WARNING: Zmatrix form will be used only for input !!
 *** WARNING: Zmatrix form will be used only for input !!
 *** WARNING: Zmatrix form will be used only for input !!
 *** WARNING: Zmatrix form will be used only for input !!
 *** WARNING: Zmatrix form will be used only for input !!
 *** WARNING: Zmatrix form will be used only for input !!
 *** WARNING: Zmatrix form will be used only for input !!
 *** WARNING: Zmatrix form will be used only for input !!
 *** WARNING: Zmatrix form will be used only for input !!
 *** WARNING: Zmatrix form will be used only for input !!
 *** WARNING: Zmatrix form will be used only for input !!
 *** WARNING: Zmatrix form will be used only for input !!
 *** WARNING: Zmatrix form will be used only for input !!
 *** WARNING: Zmatrix form will be used only for input !!
 *** WARNING: Zmatrix form will be used only for input !!
 *** WARNING: Zmatrix form will be used only for input !!
 *** WARNING: Zmatrix form will be used only for input !!
 *** WARNING: Zmatrix form will be used only for input !!
 *** WARNING: Zmatrix form will be used only for input !!
 *** WARNING: Zmatrix form will be used only for input !!
 *** WARNING: Zmatrix form will be used only for input !!
 *** WARNING: Zmatrix form will be used only for input !!
 *** WARNING: Zmatrix form will be used only for input !!
 *** WARNING: Zmatrix form will be used only for input !!
 *** WARNING: Zmatrix form will be used only for input !!
 *** WARNING: Zmatrix form will be used only for input !!
 *** WARNING: Zmatrix form will be used only for input !!
 *** WARNING: Zmatrix form will be used only for input !!
 *** WARNING: Zmatrix form will be used only for input !!
 *** WARNING: Zmatrix form will be used only for input !!
 *** WARNING: Zmatrix form will be used only for input !!
 *** WARNING: Zmatrix form will be used only for input !!
 *** WARNING: Zmatrix form will be used only for input !!
 *** WARNING: Zmatrix form will be used only for input !!
 *** WARNING: Zmatrix form will be used only for input !!
 *** WARNING: Zmatrix form will be used only for input !!
 *** WARNING: Zmatrix form will be used only for input !!
 *** WARNING: Zmatrix form will be used only for input !!
 *** WARNING: Zmatrix form will be used only for input !!
 *** WARNING: Zmatrix form will be used only for input !!
 *** WARNING: Zmatrix form will be used only for input !!
 *** WARNING: Zmatrix form will be used only for input !!
 *** WARNING: Zmatrix form will be used only for input !!
 *** WARNING: Zmatrix form will be used only for input !!
 *** WARNING: Zmatrix form will be used only for input !!
 *** WARNING: Zmatrix form will be used only for input !!
 *** WARNING: Zmatrix form will be used only for input !!
 *** WARNING: Zmatrix form will be used only for input !!
 *** WARNING: Zmatrix form will be used only for input !!
 *** WARNING: Zmatrix form will be used only for input !!
 *** WARNING: Zmatrix form will be used only for input !!
 *** WARNING: Zmatrix form will be used only for input !!
 *** WARNING: Zmatrix form will be used only for input !!
 *** WARNING: Zmatrix form will be used only for input !!
 *** WARNING: Zmatrix form will be used only for input !!
 *** WARNING: Zmatrix form will be used only for input !!
 *** WARNING: Zmatrix form will be used only for input !!
 *** WARNING: Zmatrix form will be used only for input !!
 *** WARNING: Zmatrix form will be used only for input !!
 *** WARNING: Zmatrix form will be used only for input !!
 *** WARNING: Zmatrix form will be used only for input !!
 *** WARNING: Zmatrix form will be used only for input !!
 *** WARNING: Zmatrix form will be used only for input !!
 *** WARNING: Zmatrix form will be used only for input !!
 *** WARNING: Zmatrix form will be used only for input !!
 *** WARNING: Zmatrix form will be used only for input !!
 *** WARNING: Zmatrix form will be used only for input !!
 *** WARNING: Zmatrix form will be used only for input !!
 *** WARNING: Zmatrix form will be used only for input !!
 *** WARNING: Zmatrix form will be used only for input !!
 *** WARNING: Zmatrix form will be used only for input !!
 *** WARNING: Zmatrix form will be used only for input !!
 *** WARNING: Zmatrix form will be used only for input !!
 *** WARNING: Zmatrix form will be used only for input !!
 *** WARNING: Zmatrix form will be used only for input !!
 *** WARNING: Zmatrix form will be used only for input !!
 *** WARNING: Zmatrix form will be used only for input !!
 *** WARNING: Zmatrix form will be used only for input !!
 *** WARNING: Zmatrix form will be used only for input !!
 *** WARNING: Zmatrix form will be used only for input !!
 *** WARNING: Zmatrix form will be used only for input !!
 *** WARNING: Zmatrix form will be used only for input !!
 *** WARNING: Zmatrix form will be used only for input !!
 *** WARNING: Zmatrix form will be used only for input !!
 *** WARNING: Zmatrix form will be used only for input !!
 *** WARNING: Zmatrix form will be used only for input !!
 *** WARNING: Zmatrix form will be used only for input !!
 *** WARNING: Zmatrix form will be used only for input !!
 *** WARNING: Zmatrix form will be used only for input !!
 *** WARNING: Zmatrix form will be used only for input !!
 *** WARNING: Zmatrix form will be used only for input !!
 *** WARNING: Zmatrix form will be used only for input !!
 *** WARNING: Zmatrix form will be used only for input !!
 *** WARNING: Zmatrix form will be used only for input !!
 *** WARNING: Zmatrix form will be used only for input !!
 *** WARNING: Zmatrix form will be used only for input !!
 *** WARNING: Zmatrix form will be used only for input !!
 *** WARNING: Zmatrix form will be used only for input !!
 *** WARNING: Zmatrix form will be used only for input !!
 *** WARNING: Zmatrix form will be used only for input !!
 *** WARNING: Zmatrix form will be used only for input !!
 *** WARNING: Zmatrix form will be used only for input !!
 *** WARNING: Zmatrix form will be used only for input !!
 *** WARNING: Zmatrix form will be used only for input !!
 *** WARNING: Zmatrix form will be used only for input !!
 *** WARNING: Zmatrix form will be used only for input !!
 *** WARNING: Zmatrix form will be used only for input !!
 *** WARNING: Zmatrix form will be used only for input !!
 *** WARNING: Zmatrix form will be used only for input !!
 *** WARNING: Zmatrix form will be used only for input !!
 *** WARNING: Zmatrix form will be used only for input !!
 *** WARNING: Zmatrix form will be used only for input !!
 *** WARNING: Zmatrix form will be used only for input !!
 *** WARNING: Zmatrix form will be used only for input !!
 *** WARNING: Zmatrix form will be used only for input !!
 *** WARNING: Zmatrix form will be used only for input !!
 *** WARNING: Zmatrix form will be used only for input !!
 *** WARNING: Zmatrix form will be used only for input !!
 *** WARNING: Zmatrix form will be used only for input !!
 *** WARNING: Zmatrix form will be used only for input !!
 *** WARNING: Zmatrix form will be used only for input !!
 *** WARNING: Zmatrix form will be used only for input !!
 *** WARNING: Zmatrix form will be used only for input !!
 *** WARNING: Zmatrix form will be used only for input !!
 *** WARNING: Zmatrix form will be used only for input !!
 *** WARNING: Zmatrix form will be used only for input !!
 *** WARNING: Zmatrix form will be used only for input !!
 *** WARNING: Zmatrix form will be used only for input !!
 *** WARNING: Zmatrix form will be used only for input !!
 *** WARNING: Zmatrix form will be used only for input !!
 *** WARNING: Zmatrix form will be used only for input !!
 *** WARNING: Zmatrix form will be used only for input !!
 *** WARNING: Zmatrix form will be used only for input !!
 *** WARNING: Zmatrix form will be used only for input !!
 *** WARNING: Zmatrix form will be used only for input !!
 *** WARNING: Zmatrix form will be used only for input !!
 *** WARNING: Zmatrix form will be used only for input !!
 *** WARNING: Zmatrix form will be used only for input !!
 *** WARNING: Zmatrix form will be used only for input !!
 *** WARNING: Zmatrix form will be used only for input !!
 *** WARNING: Zmatrix form will be used only for input !!
 *** WARNING: Zmatrix form will be used only for input !!
 *** WARNING: Zmatrix form will be used only for input !!
 *** WARNING: Zmatrix form will be used only for input !!
 *** WARNING: Zmatrix form will be used only for input !!
 *** WARNING: Zmatrix form will be used only for input !!
 *** WARNING: Zmatrix form will be used only for input !!
 *** WARNING: Zmatrix form will be used only for input !!
 *** WARNING: Zmatrix form will be used only for input !!
 *** WARNING: Zmatrix form will be used only for input !!
 *** WARNING: Zmatrix form will be used only for input !!
 *** WARNING: Zmatrix form will be used only for input !!
 *** WARNING: Zmatrix form will be used only for input !!
 *** WARNING: Zmatrix form will be used only for input !!
 *** WARNING: Zmatrix form will be used only for input !!
 *** WARNING: Zmatrix form will be used only for input !!
 *** WARNING: Zmatrix form will be used only for input !!
 *** WARNING: Zmatrix form will be used only for input !!
 *** WARNING: Zmatrix form will be used only for input !!
 *** WARNING: Zmatrix form will be used only for input !!
 *** WARNING: Zmatrix form will be used only for input !!
 *** WARNING: Zmatrix form will be used only for input !!
 *** WARNING: Zmatrix form will be used only for input !!
 *** WARNING: Zmatrix form will be used only for input !!
 *** WARNING: Zmatrix form will be used only for input !!
 *** WARNING: Zmatrix form will be used only for input !!
 *** WARNING: Zmatrix form will be used only for input !!
 *** WARNING: Zmatrix form will be used only for input !!
 *** WARNING: Zmatrix form will be used only for input !!
 *** WARNING: Zmatrix form will be used only for input !!
 *** WARNING: Zmatrix form will be used only for input !!
 *** WARNING: Zmatrix form will be used only for input !!
 *** WARNING: Zmatrix form will be used only for input !!
 *** WARNING: Zmatrix form will be used only for input !!
k-point displ. along   1 input, could be:     0.50    0.00
k-point displ. along   2 input, could be:     0.50    0.00
 Kpoints in:           16 . Kpoints trimmed:           16

siesta: k-grid: Number of k-points =    16
siesta: k-grid: Cutoff (effective) =    49.466 Ang
siesta: k-grid: Supercell and displacements
siesta: k-grid:    1   0   0      0.500
siesta: k-grid:    0   1   0      0.500
siesta: k-grid:    0   0  32      0.500
Naive supercell factors:     1    1    3

superc: Internal auxiliary supercell:     1 x     1 x     3  =       3
superc: Number of atoms, orbitals, and projectors:    339   4383   5403

* Maximum dynamic memory allocated =     3 MB

siesta:                 ==============================
                            Begin MD step =      1
                        ==============================

outcoor: Atomic coordinates (Ang):                          
   -1.08580100   -4.70248100    0.01503500   2       1  C
    0.34946700   -4.81067200    0.01548100   2       2  C
    3.01383700   -3.78525200    0.01550000   2       3  C
   -4.82541400    0.72061900    0.01560600   2       4  C
   -3.55859700   -3.27884200    0.01562100   2       5  C
   -4.37816800   -2.09593000    0.01566100   2       6  C
    4.00528700   -2.74196600    0.01588400   2       7  C
   -4.39342500    2.09413000    0.01616100   2       8  C
    4.86664700   -0.02388100    0.01662500   2       9  C
   -2.41905800    4.16081000    0.01685300   2      10  C
    4.65346600    1.39976600    0.01693000   2      11  C
    3.03060900    3.75064600    0.01705400   2      12  C
   -1.07398200    4.67848600    0.01715300   2      13  C
    1.77975200    4.46498100    0.01747200   2      14  C
   -4.87657300   -0.00320700    1.25148700   2      15  C
   -0.35336600    4.78652600    1.25162100   2      16  C
    1.08419000    4.67991100    1.25164300   2      17  C
    1.06700400   -4.70561900    1.25174800   2      18  C
   -4.65000800   -1.42427100    1.25182100   2      19  C
    2.40976500   -4.18706400    1.25183200   2      20  C
   -3.02458500    3.75788600    1.25189200   2      21  C
   -1.77795900   -4.48963900    1.25195300   2      22  C
   -3.02410800   -3.76929900    1.25200500   2      23  C
   -4.02068700    2.71703800    1.25213000   2      24  C
    3.56671000    3.25962400    1.25226300   2      25  C
    4.80832600   -0.74646600    1.25256200   2      26  C
    4.37360700   -2.11850700    1.25257400   2      27  C
    4.38468100    2.07415200    1.25262800   2      28  C
    1.78276700    4.46753500    2.48474800   2      29  C
   -1.07454300    4.67682800    2.48505600   2      30  C
   -4.39029300    2.09167100    2.48754100   2      31  C
    3.03242300    3.75129700    2.48770300   2      32  C
   -2.41897900    4.15850200    2.48779500   2      33  C
   -1.08592300   -4.70644400    2.48811500   2      34  C
   -4.82457000    0.71967400    2.48815600   2      35  C
    4.65121000    1.39898200    2.48821100   2      36  C
   -4.37748800   -2.09576000    2.48843600   2      37  C
    0.34976800   -4.81595600    2.48867800   2      38  C
    3.01123200   -3.78470400    2.48881200   2      39  C
    4.86609900   -0.02398300    2.48890700   2      40  C
   -3.55656600   -3.27803000    2.48892500   2      41  C
    4.00178800   -2.74037500    2.48905900   2      42  C
   -0.35414200    4.78932200    3.72203600   2      43  C
    1.08909900    4.68812100    3.72219600   2      44  C
   -3.02253900    3.75187800    3.72420400   2      45  C
    3.56577400    3.25601500    3.72443600   2      46  C
   -4.87746700   -0.00324400    3.72466400   2      47  C
   -4.01845300    2.71265800    3.72525400   2      48  C
   -3.02313700   -3.76934100    3.72525600   2      49  C
    1.06733300   -4.71133700    3.72527000   2      50  C
   -4.65080300   -1.42436600    3.72528600   2      51  C
    2.40925600   -4.18946600    3.72532500   2      52  C
    4.38461900    2.07227400    3.72545500   2      53  C
   -1.77820400   -4.49272000    3.72556500   2      54  C
    4.37033000   -2.11634600    3.72570300   2      55  C
    4.80778700   -0.74524400    3.72611800   2      56  C
   -3.55612800   -3.27706600    4.96186500   2      57  C
   -4.37752000   -2.09510800    4.96191000   2      58  C
    3.01090500   -3.78450900    4.96199900   2      59  C
   -1.08589500   -4.70655100    4.96212300   2      60  C
   -4.82594700    0.71928400    4.96218700   2      61  C
    3.99980400   -2.73878800    4.96228600   2      62  C
   -4.39010600    2.09043000    4.96255400   2      63  C
    0.34977700   -4.81671800    4.96256300   2      64  C
    4.65315900    1.39952600    4.96320200   2      65  C
    4.86726300   -0.02339600    4.96320400   2      66  C
   -2.42066500    4.15101900    4.96371600   2      67  C
    3.03578500    3.74745000    4.96400100   2      68  C
   -1.07632100    4.67863200    4.96414000   2      69  C
    1.78933300    4.47779100    4.96429400   2      70  C
    0.26640300    2.78055900    4.97036600   1      71  Li
   -3.02402900   -3.76876800    6.19889700   2      72  C
   -1.77809900   -4.48977500    6.19898100   2      73  C
   -4.65160300   -1.42384700    6.19901100   2      74  C
    2.40974900   -4.18839200    6.19921300   2      75  C
    1.06709300   -4.70739200    6.19928500   2      76  C
    4.37104600   -2.11638500    6.19947400   2      77  C
   -4.87942600   -0.00251000    6.19949100   2      78  C
    4.80847700   -0.74517400    6.20009800   2      79  C
   -4.02241400    2.71465700    6.20057300   2      80  C
    4.38868600    2.07380200    6.20112600   2      81  C
   -3.02436700    3.75227100    6.20238600   2      82  C
    3.56825600    3.25697500    6.20289700   2      83  C
   -0.35428700    4.78592900    6.20615200   2      84  C
    1.08867500    4.68443200    6.20647700   2      85  C
   -3.55827500   -3.27810000    7.43525300   2      86  C
    3.01338300   -3.78507600    7.43564100   2      87  C
   -4.37820100   -2.09538400    7.43583900   2      88  C
   -1.08571900   -4.70239500    7.43590600   2      89  C
    4.00323800   -2.74019700    7.43599700   2      90  C
    0.34965700   -4.81109000    7.43609300   2      91  C
   -4.82825500    0.72066600    7.43651100   2      92  C
    4.86842100   -0.02335200    7.43732500   2      93  C
   -4.39524700    2.09381200    7.43794100   2      94  C
    4.65674800    1.40059500    7.43828300   2      95  C
   -2.42021100    4.15748400    7.43904300   2      96  C
    3.03365200    3.74996300    7.44008800   2      97  C
   -1.07496600    4.67308300    7.44268700   2      98  C
    1.78239100    4.46313600    7.44368700   2      99  C
   -1.77843900   -4.48780800    8.67192700   2     100  C
   -4.65003400   -1.42362900    8.67219000   2     101  C
   -3.02550900   -3.76945900    8.67225200   2     102  C
    2.41066400   -4.18696300    8.67226100   2     103  C
    1.06703600   -4.70312600    8.67242300   2     104  C
   -4.87723300   -0.00269100    8.67267200   2     105  C
    4.37379400   -2.11749700    8.67296100   2     106  C
    4.80885500   -0.74588600    8.67321300   2     107  C
   -4.02262600    2.71797000    8.67354600   2     108  C
    4.38785100    2.07478100    8.67432600   2     109  C
   -3.02551600    3.75769000    8.67507700   2     110  C
    3.56776600    3.25884300    8.67570600   2     111  C
   -0.35351100    4.78272000    8.67596900   2     112  C
    1.08366800    4.67656700    8.67641000   2     113  C

superc: Internal auxiliary supercell:     1 x     1 x     3  =       3
superc: Number of atoms, orbitals, and projectors:    339   4383   5403

outcell: Unit cell vectors (Ang):
       98.931149    0.000000    0.000000
        0.000000   98.931149    0.000000
        0.000000    0.000000    9.893115

outcell: Cell vector modules (Ang)   :   98.931149   98.931149    9.893115
outcell: Cell angles (23,13,12) (deg):     90.0000     90.0000     90.0000
outcell: Cell volume (Ang**3)        :  96827.5982
New_DM. Step:     1
Initializing Density Matrix...

InitMesh: MESH =   750 x   750 x    80 =    45000000
InitMesh: Mesh cutoff (required, used) =   150.000   158.839 Ry

* Maximum dynamic memory allocated =   152 MB

stepf: Fermi-Dirac step function

siesta: Program's energy decomposition (eV):
siesta: Ebs     =     -7273.211485
siesta: Eions   =     29361.557734
siesta: Ena     =      6710.205635
siesta: Ekin    =     10044.396692
siesta: Enl     =       189.989961
siesta: DEna    =        -0.000903
siesta: DUscf   =         0.000000
siesta: DUext   =         0.000000
siesta: Exc     =     -5152.588657
siesta: eta*DQ  =         0.000000
siesta: Emadel  =         0.000000
siesta: Emeta   =         0.000000
siesta: Emolmec =         0.000000
siesta: Ekinion =         0.000000
siesta: Eharris =    -17481.802611
siesta: Etot    =    -17569.555006
siesta: FreeEng =    -17569.555006

siesta: iscf   Eharris(eV)      E_KS(eV)   FreeEng(eV)   dDmax  Ef(eV)
siesta:    1   -17481.8026   -17569.5550   -17569.5550  1.8613 -6.3258
timer: Routine,Calls,Time,% = IterSCF        1   10861.064  93.32
elaps: Routine,Calls,Wall,% = IterSCF        1      56.990  93.12
siesta:    2   -17463.0538   -17443.6569   -17443.6623  0.3760 -2.8696
siesta:    3   -17459.1691   -17459.1735   -17459.2219  0.1544 -4.0096
siesta:    4   -17468.6179   -17453.7124   -17453.7510  0.4377 -4.3660
siesta:    5   -17464.8185   -17448.5213   -17448.5863  0.1988 -4.4477
siesta:    6   -17456.3925   -17446.6439   -17446.6908  0.0723 -4.2602
siesta:    7   -17455.3906   -17445.7417   -17445.7571  0.0530 -4.2090
siesta:    8   -17455.2170   -17447.4579   -17447.4698  0.0559 -4.0637
siesta:    9   -17455.8360   -17448.9259   -17448.9326  0.0358 -4.3422
siesta:   10   -17455.0835   -17451.8383   -17451.8651  0.0156 -4.0091
siesta:   11   -17454.9547   -17452.4993   -17452.5048  0.0123 -4.0151
siesta:   12   -17454.9485   -17454.0592   -17454.0647  0.0073 -4.0204
siesta:   13   -17454.9376   -17454.8348   -17454.8404  0.0044 -4.0248
siesta:   14   -17454.9339   -17455.1230   -17455.1287  0.0028 -4.0373
siesta:   15   -17454.9330   -17454.9439   -17454.9499  0.0013 -4.0320
siesta:   16   -17454.9329   -17454.9473   -17454.9532  0.0005 -4.0342
siesta:   17   -17454.9329   -17454.9473   -17454.9533  0.0003 -4.0341
siesta:   18   -17454.9328   -17454.9441   -17454.9501  0.0002 -4.0342
siesta:   19   -17454.9329   -17454.9404   -17454.9464  0.0001 -4.0347

siesta: E_KS(eV) =           -17454.9390

siesta: E_KS - E_eggbox =    -17454.9390

siesta: Atomic forces (eV/Ang):
     1    0.015649    0.143824    0.013352
     2    0.004485    0.137226   -0.005345
     3   -0.103503    0.103647    0.014167
     4    0.146634   -0.029778    0.014025
     5    0.106122    0.083046    0.011625
     6    0.096967    0.070370   -0.008148
     7   -0.107800    0.090075    0.005640
     8    0.142124   -0.058614    0.009376
     9   -0.132436   -0.009956    0.006027
    10    0.057090   -0.120336    0.002147
    11   -0.138494   -0.032420    0.005214
    12   -0.075269   -0.111721    0.010585
    13    0.038165   -0.142810    0.004854
    14   -0.063214   -0.129025    0.000913
    15    0.137853    0.022820    0.008036
    16    0.000976   -0.142554   -0.008047
    17   -0.015539   -0.140551    0.001278
    18   -0.040954    0.119475    0.019887
    19    0.116644    0.035338    0.010862
    20   -0.054228    0.111074   -0.001634
    21    0.098824   -0.089173    0.009522
    22    0.052175    0.123433   -0.007802
    23    0.063908    0.110606    0.007506
    24    0.111561   -0.082788   -0.000815
    25   -0.107051   -0.090061    0.003616
    26   -0.124610    0.034545    0.007271
    27   -0.117590    0.053365    0.007059
    28   -0.106053   -0.072734    0.006069
    29   -0.065424   -0.119543    0.006701
    30    0.032584   -0.123866    0.008632
    31    0.130123   -0.049265    0.021759
    32   -0.067052   -0.113365   -0.002891
    33    0.048209   -0.115472   -0.006048
    34    0.020575    0.147102    0.030541
    35    0.138914   -0.039756   -0.010599
    36   -0.128260   -0.028812    0.004734
    37    0.098313    0.064673    0.018259
    38    0.001313    0.144868   -0.017586
    39   -0.083412    0.100774    0.013724
    40   -0.134892   -0.015819    0.007948
    41    0.094821    0.081678   -0.007046
    42   -0.097464    0.081402    0.003838
    43    0.004518   -0.128519   -0.006235
    44   -0.021025   -0.138389   -0.011068
    45    0.093394   -0.084414    0.007519
    46   -0.094691   -0.071927    0.003750
    47    0.144754    0.011084    0.017009
    48    0.097705   -0.072060   -0.014507
    49    0.068225    0.110570    0.013821
    50   -0.037263    0.151181    0.020375
    51    0.123191    0.041795   -0.017751
    52   -0.052250    0.129489   -0.000269
    53   -0.109153   -0.068323    0.006368
    54    0.052741    0.145252   -0.025327
    55   -0.107442    0.050997    0.007621
    56   -0.134067    0.024837   -0.009191
    57    0.091105    0.076299    0.006350
    58    0.097633    0.060071    0.022840
    59   -0.091210    0.097073    0.008844
    60    0.023202    0.145111    0.022170
    61    0.139542   -0.029914   -0.006854
    62   -0.089971    0.074703    0.012289
    63    0.124649   -0.040373    0.011193
    64    0.001406    0.145550   -0.009355
    65   -0.134375   -0.025468    0.004113
    66   -0.137796   -0.017825   -0.001419
    67    0.043816   -0.090104   -0.004096
    68   -0.052722   -0.089971   -0.000872
    69    0.015903   -0.107940   -0.011262
    70   -0.055303   -0.113040   -0.002524
    71   -0.037141   -0.000361   -0.005225
    72    0.070939    0.112049   -0.004808
    73    0.059422    0.126975   -0.006080
    74    0.128266    0.036525    0.008637
    75   -0.044710    0.130865    0.001758
    76   -0.036422    0.129323    0.002284
    77   -0.108988    0.054420   -0.004920
    78    0.148120   -0.003993    0.006912
    79   -0.129702    0.028249    0.011276
    80    0.115010   -0.084833   -0.002342
    81   -0.120208   -0.072738   -0.000759
    82    0.092729   -0.086787   -0.004065
    83   -0.101426   -0.084274    0.001222
    84    0.006386   -0.113925    0.016619
    85   -0.014632   -0.122176    0.011716
    86    0.105446    0.078204    0.019683
    87   -0.107796    0.102985   -0.005875
    88    0.090579    0.070552   -0.016743
    89    0.016959    0.140751   -0.009563
    90   -0.099421    0.079906    0.008315
    91    0.000223    0.133315   -0.001097
    92    0.154295   -0.030022   -0.001063
    93   -0.134126   -0.014102   -0.008831
    94    0.147226   -0.058951   -0.013299
    95   -0.151632   -0.038714    0.000260
    96    0.055340   -0.111455    0.011605
    97   -0.071106   -0.108451    0.008351
    98    0.035188   -0.119426   -0.010725
    99   -0.065705   -0.109507   -0.011082
   100    0.063960    0.114488    0.009579
   101    0.115253    0.024432    0.020881
   102    0.070878    0.117736   -0.015678
   103   -0.057508    0.115199    0.002280
   104   -0.037900    0.111743   -0.003108
   105    0.128397    0.015739   -0.003414
   106   -0.116972    0.033077   -0.012119
   107   -0.120397    0.037047    0.010314
   108    0.103627   -0.086737    0.003840
   109   -0.112119   -0.070726   -0.000038
   110    0.098127   -0.085886   -0.014510
   111   -0.103116   -0.078480   -0.014277
   112   -0.001848   -0.126647    0.004141
   113   -0.006825   -0.138857   -0.007893
----------------------------------------
   Tot    0.021967    0.233198    0.244900
----------------------------------------
   Max    0.154295
   Res    0.076994    sqrt( Sum f_i^2 / 3N )
----------------------------------------
   Max    0.154295    constrained

Stress-tensor-Voigt (kbar):        0.61        0.57        0.50        0.00        0.00        0.00
(Free)E + p*V (eV/cell)   -17488.8804
Target enthalpy (eV/cell)   -17454.9450

siesta: Stress tensor (static) (eV/Ang**3):
         0.000387   -0.000001    0.000000
        -0.000001    0.000363    0.000002
         0.000000    0.000002    0.000316

siesta: Pressure (static):         -0.56945158  kBar

siesta: Stress tensor (total) (eV/Ang**3):
         0.000382   -0.000002    0.000000
        -0.000002    0.000358    0.000002
         0.000000    0.000002    0.000312

siesta: Pressure (total):         -0.56152443  kBar
 
mulliken: Atomic and Orbital Populations:

Species: Li                  
Atom  Qatom  Qorb
               2s      2s      2Ppy    2Ppz    2Ppx    
  71  0.315   0.115   0.011   0.076   0.049   0.065

Species: C                   
Atom  Qatom  Qorb
               2s      2s      2py     2pz     2px     2py     2pz     2px     
               2Pdxy   2Pdyz   2Pdz2   2Pdxz   2Pdx2-y2
   1  4.002   0.443   0.549   0.647   0.568   0.523   0.279   0.383   0.423
              0.038   0.039   0.040   0.052   0.021
   2  4.002   0.442   0.550   0.648   0.568   0.522   0.276   0.383   0.425
              0.040   0.039   0.040   0.051   0.018
   3  4.001   0.443   0.549   0.588   0.568   0.581   0.345   0.384   0.356
              0.019   0.047   0.040   0.043   0.040
   4  4.003   0.445   0.548   0.526   0.570   0.641   0.418   0.383   0.284
              0.036   0.049   0.040   0.042   0.022
   5  4.002   0.442   0.549   0.568   0.568   0.601   0.368   0.383   0.333
              0.019   0.049   0.040   0.041   0.039
   6  4.002   0.443   0.548   0.557   0.568   0.612   0.385   0.382   0.317
              0.024   0.046   0.040   0.045   0.034
   7  4.003   0.444   0.548   0.575   0.569   0.594   0.364   0.382   0.339
              0.019   0.043   0.040   0.047   0.039
   8  4.002   0.443   0.548   0.535   0.567   0.635   0.408   0.382   0.296
              0.029   0.051   0.040   0.038   0.030
   9  4.001   0.444   0.549   0.520   0.569   0.647   0.425   0.383   0.277
              0.039   0.050   0.040   0.040   0.019
  10  4.000   0.443   0.549   0.628   0.569   0.539   0.300   0.383   0.400
              0.026   0.040   0.040   0.051   0.032
  11  4.002   0.443   0.549   0.525   0.567   0.645   0.420   0.382   0.283
              0.035   0.052   0.040   0.038   0.023
  12  4.000   0.443   0.549   0.611   0.568   0.556   0.320   0.383   0.381
              0.021   0.041   0.040   0.050   0.037
  13  3.998   0.441   0.549   0.638   0.564   0.532   0.291   0.382   0.413
              0.034   0.041   0.039   0.049   0.024
  14  3.998   0.441   0.549   0.623   0.565   0.546   0.308   0.381   0.398
              0.028   0.043   0.039   0.047   0.031
  15  4.002   0.445   0.548   0.520   0.567   0.648   0.426   0.383   0.277
              0.040   0.051   0.040   0.039   0.019
  16  3.995   0.441   0.549   0.648   0.566   0.519   0.278   0.381   0.426
              0.040   0.040   0.039   0.051   0.019
  17  3.996   0.442   0.548   0.647   0.566   0.519   0.280   0.380   0.425
              0.038   0.039   0.039   0.052   0.021
  18  4.002   0.443   0.549   0.636   0.568   0.534   0.290   0.383   0.411
              0.034   0.042   0.040   0.048   0.024
  19  4.003   0.444   0.548   0.524   0.569   0.643   0.419   0.383   0.283
              0.035   0.052   0.040   0.039   0.023
  20  4.002   0.444   0.549   0.628   0.568   0.541   0.302   0.383   0.400
              0.026   0.039   0.040   0.051   0.032
  21  3.999   0.443   0.548   0.588   0.565   0.581   0.347   0.382   0.358
              0.019   0.047   0.039   0.043   0.040
  22  4.003   0.443   0.549   0.621   0.568   0.548   0.306   0.383   0.395
              0.027   0.044   0.040   0.047   0.031
  23  4.002   0.443   0.549   0.611   0.568   0.559   0.321   0.383   0.380
              0.021   0.040   0.040   0.050   0.038
  24  4.001   0.444   0.548   0.576   0.568   0.593   0.362   0.383   0.338
              0.019   0.043   0.040   0.047   0.039
  25  3.999   0.442   0.548   0.568   0.564   0.603   0.370   0.382   0.334
              0.019   0.049   0.039   0.041   0.040
  26  4.003   0.444   0.548   0.529   0.568   0.641   0.417   0.382   0.285
              0.037   0.049   0.040   0.041   0.022
  27  4.002   0.443   0.549   0.536   0.569   0.633   0.406   0.383   0.295
              0.029   0.051   0.040   0.039   0.029
  28  4.002   0.444   0.548   0.555   0.570   0.613   0.385   0.383   0.315
              0.024   0.045   0.040   0.045   0.034
  29  3.990   0.451   0.540   0.625   0.563   0.546   0.305   0.375   0.397
              0.028   0.043   0.039   0.047   0.031
  30  3.990   0.450   0.540   0.640   0.562   0.533   0.289   0.376   0.412
              0.035   0.041   0.039   0.048   0.025
  31  4.003   0.444   0.547   0.536   0.567   0.636   0.407   0.382   0.294
              0.029   0.051   0.040   0.039   0.030
  32  4.000   0.447   0.545   0.615   0.569   0.558   0.319   0.381   0.378
              0.022   0.041   0.040   0.050   0.037
  33  4.000   0.447   0.545   0.632   0.570   0.540   0.299   0.381   0.397
              0.027   0.040   0.040   0.051   0.032
  34  4.003   0.444   0.549   0.648   0.568   0.522   0.278   0.383   0.423
              0.038   0.039   0.040   0.052   0.021
  35  4.004   0.445   0.547   0.527   0.570   0.643   0.417   0.383   0.283
              0.036   0.049   0.040   0.042   0.022
  36  4.003   0.444   0.548   0.526   0.566   0.647   0.420   0.382   0.281
              0.036   0.052   0.040   0.038   0.023
  37  4.002   0.444   0.548   0.558   0.568   0.614   0.384   0.382   0.316
              0.024   0.046   0.040   0.045   0.034
  38  4.002   0.443   0.549   0.650   0.568   0.521   0.275   0.383   0.425
              0.040   0.039   0.040   0.051   0.018
  39  4.002   0.443   0.549   0.588   0.568   0.582   0.345   0.384   0.355
              0.019   0.047   0.040   0.043   0.040
  40  4.003   0.444   0.548   0.520   0.569   0.650   0.424   0.383   0.276
              0.039   0.050   0.040   0.040   0.019
  41  4.002   0.442   0.549   0.569   0.569   0.601   0.368   0.383   0.332
              0.019   0.049   0.040   0.041   0.039
  42  4.003   0.444   0.548   0.576   0.569   0.595   0.363   0.382   0.338
              0.019   0.044   0.040   0.047   0.039
  43  4.062   0.478   0.520   0.770   0.594   0.533   0.200   0.358   0.410
              0.042   0.044   0.041   0.051   0.023
  44  4.067   0.482   0.517   0.769   0.595   0.541   0.203   0.356   0.404
              0.040   0.043   0.041   0.051   0.025
  45  4.006   0.452   0.540   0.599   0.567   0.590   0.340   0.379   0.350
              0.020   0.047   0.039   0.043   0.040
  46  4.006   0.452   0.540   0.577   0.567   0.616   0.365   0.378   0.323
              0.020   0.049   0.039   0.041   0.040
  47  4.003   0.446   0.547   0.521   0.567   0.651   0.426   0.382   0.275
              0.040   0.051   0.040   0.040   0.019
  48  4.003   0.447   0.545   0.577   0.571   0.598   0.360   0.383   0.335
              0.020   0.044   0.040   0.047   0.038
  49  4.003   0.444   0.548   0.612   0.568   0.560   0.321   0.383   0.379
              0.021   0.040   0.040   0.050   0.038
  50  4.003   0.443   0.549   0.638   0.568   0.534   0.289   0.383   0.411
              0.034   0.042   0.040   0.048   0.024
  51  4.004   0.445   0.548   0.525   0.570   0.646   0.418   0.383   0.281
              0.035   0.052   0.040   0.039   0.023
  52  4.003   0.444   0.548   0.629   0.568   0.542   0.301   0.383   0.400
              0.026   0.039   0.040   0.051   0.032
  53  4.004   0.447   0.545   0.556   0.572   0.619   0.383   0.382   0.312
              0.024   0.045   0.040   0.045   0.034
  54  4.003   0.444   0.549   0.623   0.568   0.549   0.305   0.383   0.395
              0.027   0.044   0.040   0.047   0.031
  55  4.003   0.443   0.548   0.536   0.569   0.635   0.405   0.383   0.294
              0.029   0.051   0.040   0.039   0.029
  56  4.005   0.446   0.547   0.530   0.568   0.644   0.416   0.382   0.282
              0.037   0.049   0.040   0.041   0.022
  57  4.002   0.443   0.549   0.570   0.569   0.602   0.367   0.383   0.332
              0.019   0.049   0.040   0.041   0.039
  58  4.003   0.444   0.548   0.558   0.568   0.615   0.384   0.382   0.315
              0.024   0.046   0.040   0.045   0.034
  59  4.003   0.444   0.548   0.589   0.568   0.583   0.345   0.384   0.354
              0.019   0.047   0.040   0.043   0.039
  60  4.003   0.444   0.548   0.649   0.568   0.523   0.277   0.383   0.423
              0.038   0.039   0.040   0.052   0.021
  61  4.005   0.447   0.546   0.527   0.570   0.645   0.417   0.383   0.282
              0.036   0.049   0.040   0.042   0.022
  62  4.004   0.445   0.548   0.577   0.569   0.596   0.363   0.382   0.337
              0.019   0.044   0.040   0.047   0.039
  63  4.007   0.447   0.546   0.538   0.568   0.643   0.406   0.381   0.289
              0.029   0.052   0.040   0.039   0.030
  64  4.003   0.443   0.549   0.651   0.568   0.522   0.274   0.383   0.425
              0.040   0.039   0.040   0.051   0.018
  65  4.008   0.447   0.546   0.527   0.568   0.656   0.419   0.381   0.275
              0.036   0.052   0.040   0.038   0.024
  66  4.005   0.446   0.547   0.520   0.570   0.653   0.423   0.383   0.274
              0.039   0.050   0.040   0.040   0.019
  67  4.013   0.464   0.531   0.648   0.581   0.556   0.287   0.378   0.376
              0.028   0.042   0.041   0.050   0.031
  68  4.018   0.464   0.531   0.632   0.582   0.584   0.306   0.377   0.350
              0.024   0.042   0.041   0.050   0.037
  69  4.103   0.496   0.506   0.813   0.592   0.563   0.185   0.355   0.389
              0.040   0.044   0.040   0.050   0.029
  70  4.110   0.501   0.502   0.787   0.596   0.594   0.210   0.352   0.364
              0.034   0.046   0.040   0.049   0.035
  72  4.003   0.444   0.549   0.612   0.568   0.559   0.320   0.383   0.379
              0.021   0.040   0.040   0.050   0.038
  73  4.003   0.444   0.549   0.623   0.568   0.548   0.305   0.383   0.395
              0.027   0.044   0.040   0.047   0.031
  74  4.004   0.445   0.547   0.525   0.570   0.646   0.418   0.383   0.281
              0.035   0.052   0.040   0.039   0.023
  75  4.003   0.444   0.548   0.629   0.568   0.542   0.301   0.383   0.400
              0.026   0.039   0.040   0.051   0.032
  76  4.003   0.443   0.549   0.637   0.568   0.534   0.289   0.383   0.411
              0.034   0.042   0.040   0.048   0.024
  77  4.003   0.443   0.548   0.537   0.569   0.635   0.405   0.383   0.294
              0.029   0.051   0.040   0.039   0.029
  78  4.003   0.447   0.547   0.520   0.567   0.651   0.426   0.383   0.275
              0.040   0.051   0.040   0.040   0.019
  79  4.005   0.446   0.547   0.530   0.568   0.644   0.417   0.382   0.283
              0.037   0.049   0.040   0.041   0.022
  80  4.003   0.447   0.545   0.578   0.571   0.598   0.359   0.383   0.335
              0.020   0.044   0.040   0.047   0.038
  81  4.004   0.447   0.545   0.555   0.572   0.619   0.383   0.382   0.312
              0.024   0.045   0.040   0.045   0.034
  82  4.007   0.452   0.541   0.599   0.567   0.590   0.340   0.378   0.350
              0.020   0.047   0.039   0.043   0.040
  83  4.007   0.452   0.540   0.577   0.567   0.616   0.365   0.378   0.323
              0.020   0.049   0.039   0.041   0.040
  84  4.063   0.479   0.519   0.772   0.595   0.533   0.199   0.357   0.410
              0.042   0.044   0.041   0.051   0.023
  85  4.069   0.483   0.516   0.771   0.596   0.541   0.202   0.356   0.403
              0.040   0.043   0.041   0.051   0.025
  86  4.002   0.442   0.549   0.569   0.569   0.602   0.367   0.383   0.332
              0.019   0.049   0.040   0.041   0.039
  87  4.002   0.443   0.549   0.588   0.568   0.582   0.345   0.383   0.355
              0.019   0.047   0.040   0.043   0.039
  88  4.002   0.444   0.548   0.557   0.568   0.613   0.385   0.382   0.316
              0.024   0.046   0.040   0.045   0.034
  89  4.003   0.443   0.549   0.647   0.569   0.523   0.278   0.383   0.423
              0.038   0.039   0.040   0.052   0.021
  90  4.003   0.444   0.548   0.576   0.569   0.595   0.364   0.382   0.338
              0.019   0.044   0.040   0.047   0.039
  91  4.002   0.442   0.550   0.649   0.568   0.522   0.275   0.383   0.425
              0.040   0.039   0.040   0.051   0.018
  92  4.004   0.446   0.547   0.526   0.570   0.643   0.418   0.383   0.283
              0.036   0.049   0.040   0.042   0.022
  93  4.003   0.445   0.548   0.520   0.569   0.650   0.424   0.383   0.276
              0.039   0.050   0.040   0.040   0.019
  94  4.003   0.445   0.547   0.536   0.567   0.637   0.407   0.382   0.294
              0.029   0.051   0.040   0.038   0.030
  95  4.003   0.444   0.548   0.526   0.567   0.648   0.420   0.382   0.281
              0.036   0.052   0.040   0.038   0.023
  96  4.000   0.447   0.545   0.632   0.570   0.540   0.299   0.381   0.398
              0.027   0.040   0.040   0.051   0.032
  97  4.000   0.447   0.545   0.615   0.569   0.557   0.318   0.381   0.378
              0.022   0.041   0.040   0.050   0.037
  98  3.990   0.449   0.540   0.640   0.563   0.532   0.289   0.376   0.412
              0.035   0.041   0.039   0.049   0.025
  99  3.990   0.450   0.540   0.625   0.564   0.545   0.304   0.375   0.397
              0.029   0.043   0.039   0.047   0.031
 100  4.002   0.443   0.549   0.621   0.568   0.548   0.306   0.383   0.395
              0.027   0.044   0.040   0.047   0.031
 101  4.002   0.444   0.548   0.524   0.569   0.643   0.419   0.383   0.283
              0.035   0.052   0.040   0.039   0.023
 102  4.002   0.443   0.549   0.612   0.568   0.559   0.321   0.383   0.380
              0.021   0.040   0.040   0.050   0.038
 103  4.002   0.443   0.549   0.628   0.568   0.541   0.302   0.383   0.400
              0.026   0.039   0.040   0.051   0.032
 104  4.002   0.443   0.549   0.636   0.568   0.534   0.290   0.383   0.411
              0.034   0.042   0.040   0.048   0.024
 105  4.002   0.445   0.548   0.520   0.567   0.647   0.427   0.383   0.278
              0.040   0.051   0.040   0.040   0.019
 106  4.002   0.443   0.549   0.536   0.569   0.633   0.406   0.383   0.295
              0.029   0.051   0.040   0.039   0.029
 107  4.003   0.444   0.548   0.529   0.568   0.641   0.417   0.382   0.285
              0.037   0.049   0.040   0.041   0.022
 108  4.001   0.444   0.548   0.576   0.569   0.593   0.362   0.383   0.338
              0.019   0.043   0.040   0.047   0.039
 109  4.002   0.444   0.548   0.555   0.570   0.613   0.385   0.383   0.315
              0.024   0.045   0.040   0.045   0.034
 110  3.999   0.443   0.548   0.589   0.565   0.581   0.347   0.382   0.358
              0.019   0.047   0.039   0.043   0.040
 111  3.999   0.441   0.549   0.568   0.565   0.603   0.370   0.382   0.334
              0.019   0.049   0.039   0.041   0.040
 112  3.995   0.440   0.549   0.647   0.566   0.519   0.278   0.381   0.426
              0.040   0.040   0.039   0.051   0.019
 113  3.995   0.442   0.548   0.647   0.566   0.519   0.280   0.380   0.425
              0.038   0.039   0.039   0.052   0.021

mulliken: Qtot =      449.000

siesta: Temp_ion =      50.000 K
 iupos on opening:           15
 iupos on writing:           15
 istep, xa, va :            1  -2.04532838115713       -8.89640623393760     
  3.123125476102472E-002  0.658849302974134       -9.08731427763011     
  2.934053040089537E-002   5.69816728000852       -7.15550399926789     
  2.492452548523081E-002  -9.11954419599197        1.36689478668458     
  3.695357973952997E-002  -6.72859905460770       -6.18981043990106     
  2.246888617179937E-002  -8.27878747069359       -3.95449400750307     
  4.547813289678613E-002   7.57058305915340       -5.17411898774875     
  3.117531410073638E-002  -8.30692093799446        3.95239131161554     
  2.375694532354540E-002   9.20083529722578      -4.779638712849205E-002
  2.539738124404558E-002  -4.56662522411718        7.86751261119044     
  3.539048911363473E-002   8.79587145327098        2.65005110841468     
  3.316311332609011E-002   5.73280301923069        7.08509212023327     
  3.811927962276227E-002  -2.03018180707837        8.84309262760940     
  3.265372230170622E-002   3.35341253147363        8.43008435676947     
  2.621972597313086E-002  -9.21678519271938      -7.768401127424551E-003
   2.36713339918816      -0.670814659499831        9.04552590253739     
   2.36327449391545        2.04922550755076        8.84048596316626     
   2.36169074276294        2.02299798921535       -8.89326353175978     
   2.37204175677759       -8.79057595426065       -2.68493251411882     
   2.36405853962666        4.54804708846779       -7.90895415962411     
   2.36581769626152       -5.71250967574885        7.10552487842529     
   2.36113976557313       -3.35616736546788       -8.48626054162303     
   2.37572421595717       -5.71246492100706       -7.12576916457494     
   2.36555909342713       -7.60915251654040        5.14275969963242     
   2.36697665541895        6.73596286114807        6.16463453173273     
   2.36272702036262        9.09070646346014       -1.42238641718264     
   2.37181432603878        8.26131241267995       -4.00560309616755     
   2.36627069209191        8.28880796411526        3.92904074908858     
   2.35754656417901        3.37165445918574        8.45150609977370     
   4.69169781022833       -2.03413109206883        8.83586209630789     
   4.69174036946066       -8.28762958652399        3.96309281998286     
   4.70421335040346        5.73843614511684        7.08690762712481     
   4.70807362764508       -4.57030377760562        7.86448384732234     
   4.70624014572216       -2.04877662622744       -8.89585261550714     
   4.69925755922469       -9.11817533069718        1.36306379159061     
   4.70003492245506        8.79103184640271        2.63377905051942     
   4.69949646964772       -8.27529049599054       -3.95819330169105     
   4.70259553553965       0.664438709263095       -9.10137338889707     
   4.70597339507757        5.68902400285153       -7.15409469747085     
   4.70702212785058        9.19747861179678      -4.535098993559486E-002
   4.70598839448120       -6.72971320355816       -6.20381374061340     
   4.70479809695518        7.55749969128631       -5.18594689444360     
   4.70396936986377      -0.662222962810272        9.05170600328318     
   7.03069451322374        2.06206773860820        8.86197210622176     
   7.03746569913078       -5.70513697568778        7.07571021163201     
   7.03528378806638        6.73221653547762        6.14452566571975     
   7.03308166387241       -9.21794405070429      -8.567650518588453E-003
   7.03846380853425       -7.59418649991086        5.12431124326333     
   7.02988455185490       -5.71011832533571       -7.13118260995134     
   7.04130482552563        2.01570312443293       -8.90204993425741     
   7.04096506257386       -8.78764165629191       -2.69279198040793     
   7.04450943699136        4.54946228031200       -7.91447282973071     
   7.04091344748637        8.28782182229853        3.91322905383946     
   7.04036377910444       -3.36260016060922       -8.48961675651112     
   7.03687782079542        8.25494643678209       -4.00497970760210     
   7.03990623626542        9.08511654509146       -1.41041007106562     
   7.03750686846104       -6.71800676515820       -6.19472046282627     
   9.37333586608410       -8.25533779702751       -3.95337199456645     
   9.38581767428768        5.70242288501002       -7.14445213568591     
   9.37781574125774       -2.05725191658274       -8.90083676239815     
   9.38843371055536       -9.12876656233157        1.35847258224852     
   9.37743297937562        7.56653321090276       -5.17157269054692     
   9.38471970214282       -8.29942080628394        3.95358166285510     
   9.37353512199708       0.671686334763412       -9.09118368042668     
   9.37979566672920        8.78218307420424        2.64358523272168     
   9.38083835646300        9.20437878033201      -3.759530048421243E-002
   9.36843042068843       -4.57941494073307        7.84275216686597     
   9.37934997171669        5.74015181799160        7.08220379022613     
   9.38369581335298       -2.03254194605525        8.83116491781848     
   9.38035144232391        3.38159770447510        8.46257651909973     
   9.37996744042515       0.501756209372963        5.24484684318511     
   9.38533516272051       -5.71015032066613       -7.12271810452188     
   11.7193855472368       -3.35929692111969       -8.49536087242233     
   11.7145305834219       -8.78520685851743       -2.68500027068857     
   11.7110876352237        4.55239987833736       -7.90996002094974     
   11.7081867126345        2.01757493303776       -8.89528220881391     
   11.7123056945534        8.25352089378921       -4.00222172113007     
   11.7134326719825       -9.21828427301287      -3.588972410724352E-004
   11.7127898713607        9.09041893211531       -1.40741191430121     
   11.7240663129254       -7.61669754274659        5.13259876837382     
   11.7224518022925        8.28695011382968        3.91987863824787     
   11.7271630006342       -5.72095984183452        7.09463090932273     
   11.7199903787485        6.73950204235826        6.16379768864534     
   11.7265325416775      -0.665312745338331        9.04187681086808     
   11.7193316235019        2.05353990991277        8.85400804939073     
   11.7297265803471       -6.71528992111641       -6.19212222954957     
   14.0556909055325        5.69161026733859       -7.15384130140607     
   14.0452310713990       -8.28016153175317       -3.95952526187218     
   14.0517345570609       -2.05267460156695       -8.88099982777631     
   14.0523790963192        7.56277189847998       -5.17484389887523     
   14.0550729875388       0.654666994404654       -9.09607552362484     
   14.0449168367911       -9.12087340566522        1.36680559408734     
   14.0566733082242        9.20932068988562      -3.843486893718516E-002
   14.0479919228877       -8.30246751456340        3.95579618662461     
   14.0640550193380        8.79702276699177        2.64103484453059     
   14.0625913268172       -4.56914066311612        7.86484848248677     
   14.0561720371008        5.72500541180048        7.08777751532008     
   14.0556855981556       -2.01571245801413        8.83771263737382     
   14.0676957501661        3.37552321209919        8.43290766010911     
   14.0615960659456       -3.37065522380728       -8.48440571761415     
   16.3836683254218       -8.79547583010986       -2.69718721916831     
   16.3834533753687       -5.71646038371935       -7.12846626761730     
   16.3801599283380        4.55278225085003       -7.92307059661978     
   16.3819917994154        2.01865285662448       -8.88377274000654     
   16.3885159760578       -9.21922071015957      -2.156204926296877E-003
   16.3878747489052        8.26760306505502       -4.00333330392162     
   16.3906758949176        9.08504948538535       -1.40841732881406     
   16.3913789371560       -7.60203699258675        5.13394450316064     
   16.3909008353822        8.28849552655189        3.91712318783861     
   16.3854582482534       -5.71583665784890        7.09689314162321     
   16.3986019510833        6.73427037667246        6.15636614559206     
   16.3971461333136      -0.671729522040957        9.03650880826009     
   16.3986222034958        2.04714381046802        8.83868419990501     
   16.3951848976058       4.341611280957549E-003 -6.830245235721187E-003
  1.864380430191872E-003 -1.036989985529322E-003  2.206144645180749E-003
  6.315504085578089E-005  2.009332135573953E-003 -1.724868233943088E-003
 -2.926842121419689E-003 -7.188672435571116E-004  3.448123649903430E-003
  4.959147527658275E-003 -2.668400049060790E-003  4.109733492329792E-003
 -4.713499449348456E-003 -3.606763737056007E-003  4.081284197559306E-003
  1.059795706407409E-002  1.244900750714391E-003  4.863417872233007E-003
  7.662191949066817E-004 -3.192413352637321E-003 -3.228698298143885E-003
 -4.532552848950725E-003  2.950812489512321E-003 -1.767291759765784E-003
 -4.019698870141479E-003  3.091262771156714E-003  3.281444408119851E-003
  2.359521070233412E-003  1.551008228011509E-003  3.287098680742495E-003
  7.741304960944799E-004  3.938242614530738E-003 -1.609999071214687E-003
  3.915952584593102E-003 -4.759131011832821E-004  1.516025392807509E-003
  1.540044196441040E-004 -6.483647831394605E-003 -4.860979976903212E-003
 -4.532753302936020E-003 -1.085246709384734E-003 -1.164494640698385E-003
  1.434101818409064E-003 -2.034057684868189E-003  3.605248617246813E-004
 -1.289136755794635E-003  2.859153197968372E-004 -2.019545075644937E-003
 -2.383228237029245E-003  4.480863290303648E-003 -7.542768853209910E-004
  4.364130512878285E-003 -2.352426434947547E-003  4.327170241874853E-003
 -1.039778456634051E-003 -3.772433405721281E-003  2.176586739914103E-003
  1.332596100791361E-004  1.974882370761048E-003  2.865270423340641E-003
 -3.073560556353978E-003  2.400716237906861E-003 -1.518899125365545E-003
  6.592141456660498E-003  1.443255524010118E-003 -2.007387435255514E-003
 -2.674222830260307E-004 -7.560927660816515E-003  5.626893528099424E-003
  5.295477103774604E-004 -2.642248739141044E-003  3.325438354698700E-003
 -2.476106270751058E-003  2.996584660127365E-003 -7.885419194205288E-003
  3.201279230839123E-003 -2.273932861746594E-003 -1.529310291728802E-003
 -5.093544809063712E-004  2.092169354205570E-003  6.388864143310156E-003
 -6.392350994567717E-003  1.881784701468317E-003  6.191889019783695E-003
 -2.539087832472607E-003 -2.395703183108101E-003 -1.236965447529351E-003
 -2.900922018672224E-003  5.736304978384279E-003  6.992964602552171E-003
  2.268912449776517E-003  5.399061760575512E-003 -1.217944125235802E-003
  4.666203892470123E-003  5.494074390454229E-004  4.164429337494495E-003
  3.331548948409230E-003  2.190911415177179E-003 -1.472213272353782E-003
 -1.768011064040039E-003 -8.608490982432523E-004  2.095934417312470E-003
 -1.254916042304384E-003  1.155184570482917E-003 -6.577321827366763E-003
 -1.700508125557725E-003 -2.133644668542947E-003  1.407359072153106E-003
  6.678775672759580E-005  2.313661660921525E-003 -5.183567841748267E-004
  2.054338121955001E-003 -8.270715830019236E-004 -1.472466608223106E-003
  2.549284843873357E-003  1.406179003515762E-003 -1.898526348538256E-006
  1.746975759295130E-003 -5.957081225485657E-003 -6.247225901685582E-003
  9.477166715939338E-004 -3.080925851831013E-003 -5.016419717977370E-003
  2.141130359140227E-004  4.667354817229821E-003  9.422760997149119E-004
 -1.950922703035582E-003  2.669157682266900E-003  1.959001955261459E-003
  2.367094027565585E-003  4.318566969133839E-003 -9.447567806789440E-003
 -1.638238715828379E-003 -3.974580686924490E-003 -5.554288500889526E-003
 -3.394339381095215E-003 -7.393423285354353E-004 -1.637447531475089E-003
 -1.084691115755548E-004 -3.823535564020211E-004 -1.166201439787024E-003
 -6.535640485551194E-003  1.779490205237214E-003 -5.563397476342402E-003
  1.043333973078778E-003 -8.010322387105036E-004  5.559183257940834E-004
  7.917791224438220E-004  5.979271355067527E-004 -8.000905966522357E-004
  3.177635871699503E-003 -2.189961172865957E-003  1.502739655150320E-003
  7.114150564306448E-004  1.516355205292984E-003 -1.791314555567821E-003
  1.736908129270809E-004 -1.579798218290102E-003  1.004592481241081E-004
 -2.253032501290616E-003 -2.400964563190311E-003 -3.833506677614275E-003
 -4.451894240214518E-004 -4.029598409619160E-005 -1.429712607622244E-003
 -2.548587877005719E-003  1.299610933470653E-003 -1.393424889074253E-003
 -2.163036849043237E-003  1.120923768752767E-002  3.805365097624857E-003
  6.082835763996907E-003  8.526292277845812E-003  4.714427666767341E-003
  6.519111941602315E-004 -3.497527270503399E-003 -4.657927023626060E-003
  7.559276134213606E-003 -6.187611100255678E-003 -4.846678959806820E-004
  1.776365438818512E-004  5.432429442235244E-003  2.574624571190190E-003
  4.889089935795185E-003 -2.353906457273302E-003  2.205575173378878E-003
 -2.903688851987319E-003  7.133968756182922E-003  7.233991760515267E-003
  1.281896538306901E-003 -7.192470200855650E-003 -7.289871639262279E-004
  1.156775443309600E-003  4.543145892372215E-003  4.431316013745572E-003
 -7.111447924202397E-003 -3.395682604330394E-003 -9.248159515088737E-004
 -4.737473812925662E-004  2.291136364322843E-003  4.662396645523023E-004
  2.060786732784424E-003  9.225406812097076E-004 -6.659132107804476E-003
 -3.321632074209329E-004  2.272095811336403E-004  6.441246984659677E-004
 -7.920535067123174E-004 -1.042476124943608E-003 -6.432783465825927E-003
 -4.855818878681152E-003  2.878849455770007E-003 -6.439418548466086E-004
  3.447617522605572E-003  4.825287687173259E-004 -7.418455011993479E-003
  1.065879352091414E-004  3.223242783221912E-003  3.746495330066450E-003
 -2.243141763685529E-003 -8.611758901271812E-004  3.156678342809093E-003
 -4.423797427577593E-003  7.482458845281996E-004  1.224632061519498E-004
 -1.769110191525379E-003 -4.251608519725214E-003 -1.949586334295005E-003
 -1.247754155856232E-003  1.498021187181606E-003  2.927392407144159E-003
 -1.711080178896430E-003  2.620420369730629E-003  4.770153711331330E-004
  5.036904949024864E-003 -1.041913787623919E-002  1.854877833435299E-003
  3.377545137360307E-003 -4.175967043184482E-003  7.217312591597591E-004
  5.819875803137240E-003 -3.926311769953966E-003  2.673803680082327E-003
 -5.455065553507810E-004 -2.236830847620143E-003  6.098259177550869E-003
  3.166191874594410E-003  2.788061576588895E-003 -1.352453962589849E-003
 -5.752531725143841E-003 -2.489125875587573E-003  1.278771029841479E-003
  7.735404373157303E-004  5.799458499601955E-003  1.639229410838274E-003
  3.373395291380503E-003 -1.785199054944933E-003 -8.373828599114337E-004
 -4.059745820496660E-003 -4.474008770147179E-003  3.904788056794005E-005
  3.875325680329118E-005 -6.606549144795560E-004  3.335821766590050E-003
  3.759222448563812E-004 -1.390644815802767E-003  2.163020711286624E-003
  2.036996239509112E-003 -4.059743024335580E-003 -3.103661014656317E-003
 -4.844074374272568E-003  1.965475521027963E-003  3.329727220200843E-003
  2.466931514734666E-003  6.374733866723202E-003  3.811963597390869E-003
 -4.337369674038008E-003  2.066156833237713E-003 -5.577780733835214E-004
  5.600364256756919E-003 -1.801319821955368E-003 -3.761017676606655E-003
  4.178384765731130E-003  2.868852029973304E-003  5.685473748285525E-003
 -1.071428535135832E-003 -5.098494302054950E-003  1.037023601895458E-003
 -2.708552473870447E-003  1.041334567142954E-002  4.709727913246693E-003
  2.045512286416902E-003  4.934962217064663E-003 -6.764764878034196E-004
 -3.280357653166843E-003 -6.666464724078314E-003 -2.578964861510887E-003
 -2.614300663501358E-003 -5.584683054408789E-003 -4.639107111161478E-003
 -3.101709319182609E-003  5.367399791754335E-004 -3.611944195664251E-003
 -5.334122413543176E-003 -1.744527749947858E-003 -7.366275590892014E-003
 -4.144513444690819E-003  1.540341116198525E-003  2.440931840480132E-003
  6.938707108250342E-006 -1.866756496250047E-003  1.934908894789436E-003
 -7.338949823398982E-004  1.683550508614519E-003 -1.265596564935158E-003
  7.792889679480699E-004 -1.445940196798238E-003  6.937834752182945E-004
  9.051507709173778E-004 -3.654887985072674E-004 -1.419589619738219E-003
  1.742153873634226E-004 -2.102887394619447E-003 -2.350872221818365E-003
 -4.432450432068438E-003  9.305726609727515E-004 -2.646012785973546E-003
  3.400253801526936E-003 -5.105387065220030E-003 -1.215993271341344E-003
  1.637019590102952E-003 -2.458100522519704E-003 -8.739857435960106E-004
  2.268914451828375E-003 -4.541091048578990E-004  9.901956341367593E-004
 -5.645989432179054E-004

* Maximum dynamic memory allocated =   156 MB