Siesta Version:                                        siesta-3.1
Architecture  : ifort12-intelmpi
Compiler flags: mpif90 -fc=ifort -I/opt/intel/cmkl/12.1.0/include/ -I/opt/intel/cmkl/12.1.0/include/intel64/lp64/ -g -O2 -xSSE4.2
PARALLEL version

* Running on   12 nodes in parallel
>> Start of run:  17-JUL-2019   4:30:49

                           ***********************       
                           *  WELCOME TO SIESTA  *       
                           ***********************       

reinit: Reading from standard input
************************** Dump of input data file ****************************
SystemName          nanotube (7,7)
SystemLabel         C112
NumberOfAtoms       114
NumberOfSpecies     2
WriteMullikenPop    1
%block ChemicalSpeciesLabel
 2  6  C      # Species index, atomic number, species label
 1  3  Li
%endblock ChemicalSpeciesLabel
#PAO.BasisSize  DZP
PAO.SplitNorm  0.59
PAO.EnergyShift  0.05 eV
MeshCutoff       200.0 Ry
#kgrid_cutoff     5.0 Bohr
%block kgrid_Monkhorst_Pack
  1  0  0   0.5
  0  1  0   0.5
  0  0  32  0.5
%endblock kgrid_Monkhorst_Pack
Spinpolarized   true
MaxSCFIterations       150
Diag.ParallelOverK   .true.
SolutionMethod         diagon
NetCharge     0.00
DM.NumberPulay    6
DM.MixingWeight   0.2
DM.UseSaveDM      .true.
NeglNonOverlapInt False
AtomicCoordinatesFormat  NotScaledCartesianAng
#AtomicCoordinatesAndAtomicSpecies < nano.xyz
XC.functional=LDA
XC.authors=CA
ZM.UnitsLength = Ang
%block Zmatrix
cartesian
  2   1.793291   4.490491   0.044514  1  1  1
  2   2.998400   3.739511   0.045706  1  1  1
  2   2.918904  -3.748518   0.047620  1  1  1
  2   0.303593  -4.769848   0.047920  1  1  1
  2   3.883998  -2.711322   0.047505  1  1  1
  2   4.521088   1.372797   0.047836  1  1  1
  2  -1.108895  -4.658524   0.048178  1  1  1
  2  -3.520533  -3.224170   0.048623  1  1  1
  2   4.719621  -0.030375   0.047863  1  1  1
  2  -4.290355  -2.034708   0.048891  1  1  1
  2  -4.645625   0.752310   0.049067  1  1  1
  2  -4.215011   2.103102   0.049707  1  1  1
  2  -1.016570   4.738030   0.049267  1  1  1
  2  -2.329916   4.196540   0.051274  1  1  1
  2   1.119532   4.740933   1.266074  1  1  1
  2  -0.303849   4.855923   1.267194  1  1  1
  2   3.506242   3.236621   1.269278  1  1  1
  2   4.271614   2.042929   1.270093  1  1  1
  2   4.241096  -2.093823   1.270142  1  1  1
  2  -1.788794  -4.442586   1.270833  1  1  1
  2   1.009088  -4.664346   1.270429  1  1  1
  2   2.328555  -4.148754   1.270190  1  1  1
  2   4.661050  -0.740845   1.270371  1  1  1
  2  -3.006375  -3.718355   1.271052  1  1  1
  2  -4.534114  -1.364001   1.271320  1  1  1
  2  -2.910994   3.776582   1.271168  1  1  1
  2  -3.861183   2.723407   1.271626  1  1  1
  2  -4.710642   0.041821   1.271493  1  1  1
  1   0.286354   2.808888   2.394739  1  1  1
  2   4.520238   1.373758   2.492955  1  1  1
  2   1.804555   4.513668   2.493422  1  1  1
  2   3.004741   3.744979   2.493205  1  1  1
  2  -1.108865  -4.658049   2.493734  1  1  1
  2   3.883281  -2.710859   2.493090  1  1  1
  2   2.918626  -3.748289   2.493151  1  1  1
  2   0.303556  -4.769459   2.493564  1  1  1
  2   4.718362  -0.029363   2.493053  1  1  1
  2  -1.016260   4.740216   2.493636  1  1  1
  2  -3.520556  -3.223803   2.494000  1  1  1
  2  -4.290858  -2.034758   2.494034  1  1  1
  2  -2.329172   4.191483   2.493934  1  1  1
  2  -4.644776   0.752457   2.494195  1  1  1
  2  -4.215256   2.103169   2.494095  1  1  1
  2   1.009374  -4.664867   3.715935  1  1  1
  2   4.273165   2.042924   3.715622  1  1  1
  2   2.328694  -4.149400   3.715762  1  1  1
  2   4.241748  -2.093910   3.715467  1  1  1
  2  -1.789290  -4.442944   3.716267  1  1  1
  2   4.661754  -0.741059   3.715415  1  1  1
  2  -3.006758  -3.718860   3.716350  1  1  1
  2   3.506944   3.235990   3.716250  1  1  1
  2  -4.535087  -1.364387   3.716488  1  1  1
  2  -4.711434   0.041361   3.716284  1  1  1
  2  -2.910753   3.775042   3.716455  1  1  1
  2  -3.862001   2.722733   3.716494  1  1  1
  2   1.118457   4.733162   3.720207  1  1  1
  2  -0.303419   4.849855   3.719497  1  1  1
  2  -2.328636   4.192457   4.936103  1  1  1
  2  -1.016014   4.735074   4.937530  1  1  1
  2   0.303297  -4.769651   4.938268  1  1  1
  2  -1.108905  -4.658264   4.938445  1  1  1
  2   2.919136  -3.748414   4.937901  1  1  1
  2   3.884164  -2.711437   4.937956  1  1  1
  2   4.521898   1.372642   4.938076  1  1  1
  2  -3.520926  -3.224055   4.938712  1  1  1
  2   4.720085  -0.030270   4.937852  1  1  1
  2  -4.290895  -2.034944   4.938810  1  1  1
  2   2.998384   3.736670   4.940186  1  1  1
  2  -4.645940   0.751623   4.938976  1  1  1
  2  -4.214536   2.101559   4.938555  1  1  1
  2   1.791530   4.482314   4.941520  1  1  1
  2   1.009055  -4.664353   6.160614  1  1  1
  2   2.328829  -4.148892   6.160460  1  1  1
  2   3.503595   3.230361   6.160726  1  1  1
  2   1.107762   4.704896   6.161435  1  1  1
  2   4.274406   2.040836   6.160536  1  1  1
  2  -1.789086  -4.442702   6.160982  1  1  1
  2   4.242598  -2.094503   6.160314  1  1  1
  2  -3.006781  -3.718427   6.161186  1  1  1
  2   4.663241  -0.741591   6.160381  1  1  1
  2  -0.308217   4.856196   6.160901  1  1  1
  2  -4.533956  -1.364238   6.161479  1  1  1
  2  -2.910227   3.776251   6.161259  1  1  1
  2  -4.710803   0.041356   6.161585  1  1  1
  2  -3.859145   2.719857   6.161839  1  1  1
  1  -0.583154   2.618802   7.058734  1  1  1
  2   2.992561   3.727908   7.383691  1  1  1
  2   0.303415  -4.769055   7.383698  1  1  1
  2   2.918780  -3.747969   7.383433  1  1  1
  2   3.884203  -2.711234   7.383317  1  1  1
  2  -1.108919  -4.657755   7.383959  1  1  1
  2   1.784016   4.469255   7.384634  1  1  1
  2   4.521834   1.371900   7.383571  1  1  1
  2   4.720104  -0.030682   7.383552  1  1  1
  2  -3.520269  -3.223666   7.384379  1  1  1
  2  -4.289737  -2.034297   7.384573  1  1  1
  2  -4.645571   0.751624   7.384873  1  1  1
  2  -4.215822   2.102113   7.385335  1  1  1
  2  -1.024802   4.775768   7.387295  1  1  1
  2  -2.339423   4.212097   7.386839  1  1  1
  2   3.503175   3.230959   8.606535  1  1  1
  2   2.328900  -4.149245   8.606021  1  1  1
  2   1.009235  -4.664854   8.606244  1  1  1
  2  -1.789166  -4.443241   8.606668  1  1  1
  2   4.242490  -2.094655   8.606017  1  1  1
  2   4.273872   2.040879   8.606408  1  1  1
  2   1.108217   4.711362   8.607026  1  1  1
  2   4.663013  -0.741732   8.606227  1  1  1
  2  -3.006766  -3.718842   8.606945  1  1  1
  2  -4.533721  -1.364208   8.607399  1  1  1
  2  -4.710830   0.041517   8.607710  1  1  1
  2  -3.861137   2.723073   8.608123  1  1  1
  2  -0.307373   4.856236   8.609613  1  1  1
  2  -2.913959   3.780956   8.609803  1  1  1
%endblock Zmatrix
LatticeConstant       97.8061228574 Ang
%block LatticeParameters
  1.0 1.0 0.1 90. 90. 90.   #14.8921728
%endblock LatticeParameters
WriteCoorXmol     True
WriteForces .true.
WriteMullikenPop     1
SaveRho                  .true.
%block ProjectedDensityOfStates
   -24.00  15.00  0.100  1000  eV
%endblock ProjectedDensityOfStates
MD.TypeOfRun           cg               # Type of dynamics: Conjugate gradients
MD.NumCGsteps          320              # number of CG steps
MD.MaxCGDispl          0.15 Ang
MD.MaxForceTol         0.04 eV/Ang
MD.UseSaveXV           yes
MD.VariableCell        .false.
************************** End of input data file *****************************

reinit: -----------------------------------------------------------------------
reinit: System Name: nanotube (7,7
reinit: -----------------------------------------------------------------------
reinit: System Label: C112                                                        
reinit: -----------------------------------------------------------------------

initatom: Reading input for the pseudopotentials and atomic orbitals ----------
 Species number:            2  Label: C Atomic number:           6
 Species number:            1  Label: Li Atomic number:           3
Ground state valence configuration:   2s01
Reading pseudopotential information in formatted form from Li.psf

Valence configuration for pseudopotential generation:
2s( 1.00) rc: 2.28
2p( 0.00) rc: 2.28
3d( 0.00) rc: 2.59
4f( 0.00) rc: 2.59
Ground state valence configuration:   2s02  2p02
Reading pseudopotential information in formatted form from C.psf

Valence configuration for pseudopotential generation:
2s( 2.00) rc: 1.25
2p( 2.00) rc: 1.25
3d( 0.00) rc: 1.25
4f( 0.00) rc: 1.25
For Li, standard SIESTA heuristics set lmxkb to 2
 (one more than the basis l, including polarization orbitals).
Use PS.lmax or PS.KBprojectors blocks to override.
For C, standard SIESTA heuristics set lmxkb to 3
 (one more than the basis l, including polarization orbitals).
Use PS.lmax or PS.KBprojectors blocks to override.

<basis_specs>
===============================================================================
Li                   Z=   3    Mass=  6.9400        Charge= 0.17977+309
Lmxo=0 Lmxkb= 2    BasisType=split      Semic=F
L=0  Nsemic=0  Cnfigmx=2
          n=1  nzeta=2  polorb=1
            splnorm:   0.59000    
               vcte:    0.0000    
               rinn:    0.0000    
                rcs:    0.0000      0.0000    
            lambdas:    1.0000      1.0000    
-------------------------------------------------------------------------------
L=0  Nkbl=1  erefs: 0.17977+309
L=1  Nkbl=1  erefs: 0.17977+309
L=2  Nkbl=1  erefs: 0.17977+309
===============================================================================
</basis_specs>

atom: Called for Li                    (Z =   3)

read_vps: Pseudopotential generation method:
read_vps: ATM 3.2.2 Troullier-Martins                       
Total valence charge:    1.00000

read_vps: Pseudopotential includes a core correction:
read_vps: Pseudo-core for xc-correction

xc_check: Exchange-correlation functional:
xc_check: Ceperley-Alder
V l=0 = -2*Zval/r beyond r=  2.2278
V l=1 = -2*Zval/r beyond r=  2.2278
V l=2 = -2*Zval/r beyond r=  2.5245
All V_l potentials equal beyond r=  2.4932
This should be close to max(r_c) in ps generation
All pots = -2*Zval/r beyond r=  2.5245

VLOCAL1: 99.0% of the norm of Vloc inside      6.983 Ry
VLOCAL1: 99.9% of the norm of Vloc inside     15.915 Ry
atom: Maximum radius for 4*pi*r*r*local-pseudopot. charge    2.89679
atom: Maximum radius for r*vlocal+2*Zval:    2.46219
GHOST: No ghost state for L =  0
GHOST: No ghost state for L =  1
GHOST: No ghost state for L =  2

KBgen: Kleinman-Bylander projectors: 
   l= 0   rc=  2.687416   el= -0.211535   Ekb=  1.687927   kbcos=  0.233983
   l= 1   rc=  2.755470   el= -0.083009   Ekb= -1.097314   kbcos= -0.153392
   l= 2   rc=  2.860793   el=  0.002356   Ekb= -0.211588   kbcos= -0.031024

KBgen: Total number of  Kleinman-Bylander projectors:    9
atom: -------------------------------------------------------------------------

atom: SANKEY-TYPE ORBITALS:
atom: Selected multiple-zeta basis: split     

SPLIT: Orbitals with angular momentum L= 0

SPLIT: Basis orbitals for state 2s

SPLIT: PAO cut-off radius determined from an
SPLIT: energy shift=  0.003675 Ry

   izeta = 1
                 lambda =    1.000000
                     rc =    9.987207
                 energy =   -0.208154
                kinetic =    0.151718
    potential(screened) =   -0.359872
       potential(ionic) =   -0.537364

   izeta = 2
                 rmatch =    5.761768
              splitnorm =    0.590000
                 energy =   -0.011018
                kinetic =    0.491809
    potential(screened) =   -0.502827
       potential(ionic) =   -0.688445

POLgen: Perturbative polarization orbital with L=  1

POLgen: Polarization orbital for state 2s

   izeta = 1
                     rc =    9.987207
                 energy =   -0.016884
                kinetic =    0.305445
    potential(screened) =   -0.322329
       potential(ionic) =   -0.502117
atom: Total number of Sankey-type orbitals:  5

atm_pop: Valence configuration (for local Pseudopot. screening):
 2s( 1.00)                                                            
Vna: chval, zval:    1.00000   1.00000

Vna:  Cut-off radius for the neutral-atom potential:   9.987207
comcore: Pseudo-core radius Rcore=  3.494364

atom: _________________________________________________________________________

<basis_specs>
===============================================================================
C                    Z=   6    Mass=  12.010        Charge= 0.17977+309
Lmxo=1 Lmxkb= 3    BasisType=split      Semic=F
L=0  Nsemic=0  Cnfigmx=2
          n=1  nzeta=2  polorb=0
            splnorm:   0.59000    
               vcte:    0.0000    
               rinn:    0.0000    
                rcs:    0.0000      0.0000    
            lambdas:    1.0000      1.0000    
L=1  Nsemic=0  Cnfigmx=2
          n=1  nzeta=2  polorb=1
            splnorm:   0.59000    
               vcte:    0.0000    
               rinn:    0.0000    
                rcs:    0.0000      0.0000    
            lambdas:    1.0000      1.0000    
-------------------------------------------------------------------------------
L=0  Nkbl=1  erefs: 0.17977+309
L=1  Nkbl=1  erefs: 0.17977+309
L=2  Nkbl=1  erefs: 0.17977+309
L=3  Nkbl=1  erefs: 0.17977+309
===============================================================================
</basis_specs>

atom: Called for C                     (Z =   6)

read_vps: Pseudopotential generation method:
read_vps: ATM3      Troullier-Martins                       
Total valence charge:    4.00000

xc_check: Exchange-correlation functional:
xc_check: Ceperley-Alder
V l=0 = -2*Zval/r beyond r=  1.3951
V l=1 = -2*Zval/r beyond r=  1.3777
V l=2 = -2*Zval/r beyond r=  1.3777
V l=3 = -2*Zval/r beyond r=  1.3777
All V_l potentials equal beyond r=  1.2311
This should be close to max(r_c) in ps generation
All pots = -2*Zval/r beyond r=  1.3951

VLOCAL1: 99.0% of the norm of Vloc inside     28.641 Ry
VLOCAL1: 99.9% of the norm of Vloc inside     65.273 Ry
atom: Maximum radius for 4*pi*r*r*local-pseudopot. charge    1.48507
atom: Maximum radius for r*vlocal+2*Zval:    1.27815
GHOST: No ghost state for L =  0
GHOST: No ghost state for L =  1
GHOST: No ghost state for L =  2
GHOST: No ghost state for L =  3

KBgen: Kleinman-Bylander projectors: 
   l= 0   rc=  1.600766   el= -1.001946   Ekb=  7.816946   kbcos=  0.279978
   l= 1   rc=  1.620907   el= -0.398597   Ekb= -4.829535   kbcos= -0.287433
   l= 2   rc=  1.836783   el=  0.002326   Ekb= -1.327964   kbcos= -0.005365
   l= 3   rc=  1.979871   el=  0.003420   Ekb= -0.522285   kbcos= -0.000569

KBgen: Total number of  Kleinman-Bylander projectors:   16
atom: -------------------------------------------------------------------------

atom: SANKEY-TYPE ORBITALS:
atom: Selected multiple-zeta basis: split     

SPLIT: Orbitals with angular momentum L= 0

SPLIT: Basis orbitals for state 2s

SPLIT: PAO cut-off radius determined from an
SPLIT: energy shift=  0.003675 Ry

   izeta = 1
                 lambda =    1.000000
                     rc =    5.120028
                 energy =   -0.998772
                kinetic =    0.858242
    potential(screened) =   -1.857014
       potential(ionic) =   -5.418547

   izeta = 2
                 rmatch =    2.300349
              splitnorm =    0.590000
                 energy =    0.102977
                kinetic =    2.861156
    potential(screened) =   -2.758179
       potential(ionic) =   -6.824757

SPLIT: Orbitals with angular momentum L= 1

SPLIT: Basis orbitals for state 2p

SPLIT: PAO cut-off radius determined from an
SPLIT: energy shift=  0.003675 Ry

   izeta = 1
                 lambda =    1.000000
                     rc =    6.253707
                 energy =   -0.395142
                kinetic =    2.439321
    potential(screened) =   -2.834463
       potential(ionic) =   -6.264070

   izeta = 2
                 rmatch =    2.030003
              splitnorm =    0.590000
                 energy =    0.951237
                kinetic =    7.827527
    potential(screened) =   -6.876290
       potential(ionic) =  -11.218295

POLgen: Perturbative polarization orbital with L=  2

POLgen: Polarization orbital for state 2p

   izeta = 1
                     rc =    6.253707
                 energy =    1.009535
                kinetic =    2.120051
    potential(screened) =   -1.110516
       potential(ionic) =   -3.842863
atom: Total number of Sankey-type orbitals: 13

atm_pop: Valence configuration (for local Pseudopot. screening):
 2s( 2.00)                                                            
 2p( 2.00)                                                            
Vna: chval, zval:    4.00000   4.00000

Vna:  Cut-off radius for the neutral-atom potential:   6.253707

atom: _________________________________________________________________________

prinput: Basis input ----------------------------------------------------------

PAO.BasisType split     

%block ChemicalSpeciesLabel
    1    3 Li                      # Species index, atomic number, species label
    2    6 C                       # Species index, atomic number, species label
%endblock ChemicalSpeciesLabel

%block PAO.Basis                 # Define Basis set
Li                    1                    # Species label, number of l-shells
 n=2   0   2 P   1                   # n, l, Nzeta, Polarization, NzetaPol
   9.987      5.762   
   1.000      1.000   
C                     2                    # Species label, number of l-shells
 n=2   0   2                         # n, l, Nzeta 
   5.120      2.300   
   1.000      1.000   
 n=2   1   2 P   1                   # n, l, Nzeta, Polarization, NzetaPol
   6.254      2.030   
   1.000      1.000   
%endblock PAO.Basis

prinput: ----------------------------------------------------------------------

coor:   Atomic-coordinates input format  =     Cartesian coordinates
coor:                                          (in Angstroms)
read_Zmatrix: Length units: Ang       
read_Zmatrix: Angle  units: rad       
read_Zmatrix: Force tolerances:
read_Zmatrix:    for lengths =     0.001556 Ry/Bohr
read_Zmatrix:    for angles  =     0.003565 Ry/rad

read_Zmatrix: Maximum displacements:
read_Zmatrix:    for lengths =     0.200000 Bohr
read_Zmatrix:    for angles  =     0.003000 rad
%block Zmatrix
cartesian
  2   1.793291   4.490491   0.044514  1  1  1
  2   2.998400   3.739511   0.045706  1  1  1
  2   2.918904  -3.748518   0.047620  1  1  1
  2   0.303593  -4.769848   0.047920  1  1  1
  2   3.883998  -2.711322   0.047505  1  1  1
  2   4.521088   1.372797   0.047836  1  1  1
  2  -1.108895  -4.658524   0.048178  1  1  1
  2  -3.520533  -3.224170   0.048623  1  1  1
  2   4.719621  -0.030375   0.047863  1  1  1
  2  -4.290355  -2.034708   0.048891  1  1  1
  2  -4.645625   0.752310   0.049067  1  1  1
  2  -4.215011   2.103102   0.049707  1  1  1
  2  -1.016570   4.738030   0.049267  1  1  1
  2  -2.329916   4.196540   0.051274  1  1  1
  2   1.119532   4.740933   1.266074  1  1  1
  2  -0.303849   4.855923   1.267194  1  1  1
  2   3.506242   3.236621   1.269278  1  1  1
  2   4.271614   2.042929   1.270093  1  1  1
  2   4.241096  -2.093823   1.270142  1  1  1
  2  -1.788794  -4.442586   1.270833  1  1  1
  2   1.009088  -4.664346   1.270429  1  1  1
  2   2.328555  -4.148754   1.270190  1  1  1
  2   4.661050  -0.740845   1.270371  1  1  1
  2  -3.006375  -3.718355   1.271052  1  1  1
  2  -4.534114  -1.364001   1.271320  1  1  1
  2  -2.910994   3.776582   1.271168  1  1  1
  2  -3.861183   2.723407   1.271626  1  1  1
  2  -4.710642   0.041821   1.271493  1  1  1
  1   0.286354   2.808888   2.394739  1  1  1
  2   4.520238   1.373758   2.492955  1  1  1
  2   1.804555   4.513668   2.493422  1  1  1
  2   3.004741   3.744979   2.493205  1  1  1
  2  -1.108865  -4.658049   2.493734  1  1  1
  2   3.883281  -2.710859   2.493090  1  1  1
  2   2.918626  -3.748289   2.493151  1  1  1
  2   0.303556  -4.769459   2.493564  1  1  1
  2   4.718362  -0.029363   2.493053  1  1  1
  2  -1.016260   4.740216   2.493636  1  1  1
  2  -3.520556  -3.223803   2.494000  1  1  1
  2  -4.290858  -2.034758   2.494034  1  1  1
  2  -2.329172   4.191483   2.493934  1  1  1
  2  -4.644776   0.752457   2.494195  1  1  1
  2  -4.215256   2.103169   2.494095  1  1  1
  2   1.009374  -4.664867   3.715935  1  1  1
  2   4.273165   2.042924   3.715622  1  1  1
  2   2.328694  -4.149400   3.715762  1  1  1
  2   4.241748  -2.093910   3.715467  1  1  1
  2  -1.789290  -4.442944   3.716267  1  1  1
  2   4.661754  -0.741059   3.715415  1  1  1
  2  -3.006758  -3.718860   3.716350  1  1  1
  2   3.506944   3.235990   3.716250  1  1  1
  2  -4.535087  -1.364387   3.716488  1  1  1
  2  -4.711434   0.041361   3.716284  1  1  1
  2  -2.910753   3.775042   3.716455  1  1  1
  2  -3.862001   2.722733   3.716494  1  1  1
  2   1.118457   4.733162   3.720207  1  1  1
  2  -0.303419   4.849855   3.719497  1  1  1
  2  -2.328636   4.192457   4.936103  1  1  1
  2  -1.016014   4.735074   4.937530  1  1  1
  2   0.303297  -4.769651   4.938268  1  1  1
  2  -1.108905  -4.658264   4.938445  1  1  1
  2   2.919136  -3.748414   4.937901  1  1  1
  2   3.884164  -2.711437   4.937956  1  1  1
  2   4.521898   1.372642   4.938076  1  1  1
  2  -3.520926  -3.224055   4.938712  1  1  1
  2   4.720085  -0.030270   4.937852  1  1  1
  2  -4.290895  -2.034944   4.938810  1  1  1
  2   2.998384   3.736670   4.940186  1  1  1
  2  -4.645940   0.751623   4.938976  1  1  1
  2  -4.214536   2.101559   4.938555  1  1  1
  2   1.791530   4.482314   4.941520  1  1  1
  2   1.009055  -4.664353   6.160614  1  1  1
  2   2.328829  -4.148892   6.160460  1  1  1
  2   3.503595   3.230361   6.160726  1  1  1
  2   1.107762   4.704896   6.161435  1  1  1
  2   4.274406   2.040836   6.160536  1  1  1
  2  -1.789086  -4.442702   6.160982  1  1  1
  2   4.242598  -2.094503   6.160314  1  1  1
  2  -3.006781  -3.718427   6.161186  1  1  1
  2   4.663241  -0.741591   6.160381  1  1  1
  2  -0.308217   4.856196   6.160901  1  1  1
  2  -4.533956  -1.364238   6.161479  1  1  1
  2  -2.910227   3.776251   6.161259  1  1  1
  2  -4.710803   0.041356   6.161585  1  1  1
  2  -3.859145   2.719857   6.161839  1  1  1
  1  -0.583154   2.618802   7.058734  1  1  1
  2   2.992561   3.727908   7.383691  1  1  1
  2   0.303415  -4.769055   7.383698  1  1  1
  2   2.918780  -3.747969   7.383433  1  1  1
  2   3.884203  -2.711234   7.383317  1  1  1
  2  -1.108919  -4.657755   7.383959  1  1  1
  2   1.784016   4.469255   7.384634  1  1  1
  2   4.521834   1.371900   7.383571  1  1  1
  2   4.720104  -0.030682   7.383552  1  1  1
  2  -3.520269  -3.223666   7.384379  1  1  1
  2  -4.289737  -2.034297   7.384573  1  1  1
  2  -4.645571   0.751624   7.384873  1  1  1
  2  -4.215822   2.102113   7.385335  1  1  1
  2  -1.024802   4.775768   7.387295  1  1  1
  2  -2.339423   4.212097   7.386839  1  1  1
  2   3.503175   3.230959   8.606535  1  1  1
  2   2.328900  -4.149245   8.606021  1  1  1
  2   1.009235  -4.664854   8.606244  1  1  1
  2  -1.789166  -4.443241   8.606668  1  1  1
  2   4.242490  -2.094655   8.606017  1  1  1
  2   4.273872   2.040879   8.606408  1  1  1
  2   1.108217   4.711362   8.607026  1  1  1
  2   4.663013  -0.741732   8.606227  1  1  1
  2  -3.006766  -3.718842   8.606945  1  1  1
  2  -4.533721  -1.364208   8.607399  1  1  1
  2  -4.710830   0.041517   8.607710  1  1  1
  2  -3.861137   2.723073   8.608123  1  1  1
  2  -0.307373   4.856236   8.609613  1  1  1
  2  -2.913959   3.780956   8.609803  1  1  1
%endblock Zmatrix

zmatrix: Z-matrix coordinates: (Ang ; rad )
zmatrix: (Fractional coordinates have been converted to cartesian)
cartesian block    1 (   114 atoms)
      1.79329100      4.49049100      0.04451400
      2.99840000      3.73951100      0.04570600
      2.91890400     -3.74851800      0.04762000
      0.30359300     -4.76984800      0.04792000
      3.88399800     -2.71132200      0.04750500
      4.52108800      1.37279700      0.04783600
     -1.10889500     -4.65852400      0.04817800
     -3.52053300     -3.22417000      0.04862300
      4.71962100     -0.03037500      0.04786300
     -4.29035500     -2.03470800      0.04889100
     -4.64562500      0.75231000      0.04906700
     -4.21501100      2.10310200      0.04970700
     -1.01657000      4.73803000      0.04926700
     -2.32991600      4.19654000      0.05127400
      1.11953200      4.74093300      1.26607400
     -0.30384900      4.85592300      1.26719400
      3.50624200      3.23662100      1.26927800
      4.27161400      2.04292900      1.27009300
      4.24109600     -2.09382300      1.27014200
     -1.78879400     -4.44258600      1.27083300
      1.00908800     -4.66434600      1.27042900
      2.32855500     -4.14875400      1.27019000
      4.66105000     -0.74084500      1.27037100
     -3.00637500     -3.71835500      1.27105200
     -4.53411400     -1.36400100      1.27132000
     -2.91099400      3.77658200      1.27116800
     -3.86118300      2.72340700      1.27162600
     -4.71064200      0.04182100      1.27149300
      0.28635400      2.80888800      2.39473900
      4.52023800      1.37375800      2.49295500
      1.80455500      4.51366800      2.49342200
      3.00474100      3.74497900      2.49320500
     -1.10886500     -4.65804900      2.49373400
      3.88328100     -2.71085900      2.49309000
      2.91862600     -3.74828900      2.49315100
      0.30355600     -4.76945900      2.49356400
      4.71836200     -0.02936300      2.49305300
     -1.01626000      4.74021600      2.49363600
     -3.52055600     -3.22380300      2.49400000
     -4.29085800     -2.03475800      2.49403400
     -2.32917200      4.19148300      2.49393400
     -4.64477600      0.75245700      2.49419500
     -4.21525600      2.10316900      2.49409500
      1.00937400     -4.66486700      3.71593500
      4.27316500      2.04292400      3.71562200
      2.32869400     -4.14940000      3.71576200
      4.24174800     -2.09391000      3.71546700
     -1.78929000     -4.44294400      3.71626700
      4.66175400     -0.74105900      3.71541500
     -3.00675800     -3.71886000      3.71635000
      3.50694400      3.23599000      3.71625000
     -4.53508700     -1.36438700      3.71648800
     -4.71143400      0.04136100      3.71628400
     -2.91075300      3.77504200      3.71645500
     -3.86200100      2.72273300      3.71649400
      1.11845700      4.73316200      3.72020700
     -0.30341900      4.84985500      3.71949700
     -2.32863600      4.19245700      4.93610300
     -1.01601400      4.73507400      4.93753000
      0.30329700     -4.76965100      4.93826800
     -1.10890500     -4.65826400      4.93844500
      2.91913600     -3.74841400      4.93790100
      3.88416400     -2.71143700      4.93795600
      4.52189800      1.37264200      4.93807600
     -3.52092600     -3.22405500      4.93871200
      4.72008500     -0.03027000      4.93785200
     -4.29089500     -2.03494400      4.93881000
      2.99838400      3.73667000      4.94018600
     -4.64594000      0.75162300      4.93897600
     -4.21453600      2.10155900      4.93855500
      1.79153000      4.48231400      4.94152000
      1.00905500     -4.66435300      6.16061400
      2.32882900     -4.14889200      6.16046000
      3.50359500      3.23036100      6.16072600
      1.10776200      4.70489600      6.16143500
      4.27440600      2.04083600      6.16053600
     -1.78908600     -4.44270200      6.16098200
      4.24259800     -2.09450300      6.16031400
     -3.00678100     -3.71842700      6.16118600
      4.66324100     -0.74159100      6.16038100
     -0.30821700      4.85619600      6.16090100
     -4.53395600     -1.36423800      6.16147900
     -2.91022700      3.77625100      6.16125900
     -4.71080300      0.04135600      6.16158500
     -3.85914500      2.71985700      6.16183900
     -0.58315400      2.61880200      7.05873400
      2.99256100      3.72790800      7.38369100
      0.30341500     -4.76905500      7.38369800
      2.91878000     -3.74796900      7.38343300
      3.88420300     -2.71123400      7.38331700
     -1.10891900     -4.65775500      7.38395900
      1.78401600      4.46925500      7.38463400
      4.52183400      1.37190000      7.38357100
      4.72010400     -0.03068200      7.38355200
     -3.52026900     -3.22366600      7.38437900
     -4.28973700     -2.03429700      7.38457300
     -4.64557100      0.75162400      7.38487300
     -4.21582200      2.10211300      7.38533500
     -1.02480200      4.77576800      7.38729500
     -2.33942300      4.21209700      7.38683900
      3.50317500      3.23095900      8.60653500
      2.32890000     -4.14924500      8.60602100
      1.00923500     -4.66485400      8.60624400
     -1.78916600     -4.44324100      8.60666800
      4.24249000     -2.09465500      8.60601700
      4.27387200      2.04087900      8.60640800
      1.10821700      4.71136200      8.60702600
      4.66301300     -0.74173200      8.60622700
     -3.00676600     -3.71884200      8.60694500
     -4.53372100     -1.36420800      8.60739900
     -4.71083000      0.04151700      8.60771000
     -3.86113700      2.72307300      8.60812300
     -0.30737300      4.85623600      8.60961300
     -2.91395900      3.78095600      8.60980300


Z-matrix Symbol Section -------
Variables
Constants
------------ End of Z-matrix Information


siesta: WARNING: XV file not found

siesta: Atomic coordinates (Bohr) and species
siesta:      3.38883   8.48580   0.08412  2        1
siesta:      5.66616   7.06665   0.08637  2        2
siesta:      5.51593  -7.08368   0.08999  2        3
siesta:      0.57371  -9.01371   0.09056  2        4
siesta:      7.33970  -5.12366   0.08977  2        5
siesta:      8.54362   2.59421   0.09040  2        6
siesta:     -2.09551  -8.80334   0.09104  2        7
siesta:     -6.65285  -6.09280   0.09188  2        8
siesta:      8.91879  -0.05740   0.09045  2        9
siesta:     -8.10760  -3.84504   0.09239  2       10
siesta:     -8.77896   1.42166   0.09272  2       11
siesta:     -7.96522   3.97429   0.09393  2       12
siesta:     -1.92104   8.95358   0.09310  2       13
siesta:     -4.40290   7.93031   0.09689  2       14
siesta:      2.11561   8.95907   2.39253  2       15
siesta:     -0.57419   9.17637   2.39465  2       16
siesta:      6.62584   6.11633   2.39859  2       17
siesta:      8.07218   3.86058   2.40013  2       18
siesta:      8.01451  -3.95675   2.40022  2       19
siesta:     -3.38033  -8.39527   2.40153  2       20
siesta:      1.90690  -8.81434   2.40076  2       21
siesta:      4.40033  -7.84001   2.40031  2       22
siesta:      8.80811  -1.39999   2.40065  2       23
siesta:     -5.68123  -7.02668   2.40194  2       24
siesta:     -8.56824  -2.57759   2.40245  2       25
siesta:     -5.50098   7.13671   2.40216  2       26
siesta:     -7.29658   5.14650   2.40303  2       27
siesta:     -8.90183   0.07903   2.40277  2       28
siesta:      0.54113   5.30803   4.52540  1       29
siesta:      8.54202   2.59603   4.71100  2       30
siesta:      3.41012   8.52960   4.71189  2       31
siesta:      5.67814   7.07699   4.71148  2       32
siesta:     -2.09545  -8.80244   4.71248  2       33
siesta:      7.33834  -5.12278   4.71126  2       34
siesta:      5.51541  -7.08324   4.71137  2       35
siesta:      0.57364  -9.01297   4.71215  2       36
siesta:      8.91642  -0.05549   4.71119  2       37
siesta:     -1.92045   8.95771   4.71229  2       38
siesta:     -6.65289  -6.09211   4.71298  2       39
siesta:     -8.10855  -3.84514   4.71304  2       40
siesta:     -4.40150   7.92076   4.71285  2       41
siesta:     -8.77736   1.42194   4.71335  2       42
siesta:     -7.96568   3.97441   4.71316  2       43
siesta:      1.90744  -8.81532   7.02210  2       44
siesta:      8.07511   3.86057   7.02151  2       45
siesta:      4.40060  -7.84123   7.02178  2       46
siesta:      8.01575  -3.95692   7.02122  2       47
siesta:     -3.38127  -8.39595   7.02273  2       48
siesta:      8.80944  -1.40040   7.02112  2       49
siesta:     -5.68195  -7.02763   7.02289  2       50
siesta:      6.62717   6.11514   7.02270  2       51
siesta:     -8.57008  -2.57832   7.02315  2       52
siesta:     -8.90332   0.07816   7.02276  2       53
siesta:     -5.50053   7.13380   7.02308  2       54
siesta:     -7.29813   5.14522   7.02316  2       55
siesta:      2.11358   8.94438   7.03018  2       56
siesta:     -0.57338   9.16490   7.02883  2       57
siesta:     -4.40049   7.92260   9.32789  2       58
siesta:     -1.91999   8.94800   9.33058  2       59
siesta:      0.57315  -9.01334   9.33198  2       60
siesta:     -2.09553  -8.80285   9.33231  2       61
siesta:      5.51637  -7.08348   9.33128  2       62
siesta:      7.34001  -5.12388   9.33139  2       63
siesta:      8.54515   2.59392   9.33161  2       64
siesta:     -6.65359  -6.09258   9.33282  2       65
siesta:      8.91967  -0.05720   9.33119  2       66
siesta:     -8.10862  -3.84549   9.33300  2       67
siesta:      5.66613   7.06129   9.33560  2       68
siesta:     -8.77956   1.42036   9.33332  2       69
siesta:     -7.96432   3.97137   9.33252  2       70
siesta:      3.38550   8.47035   9.33812  2       71
siesta:      1.90684  -8.81435  11.64188  2       72
siesta:      4.40085  -7.84027  11.64159  2       73
siesta:      6.62084   6.10450  11.64209  2       74
siesta:      2.09337   8.89097  11.64343  2       75
siesta:      8.07746   3.85662  11.64173  2       76
siesta:     -3.38088  -8.39549  11.64257  2       77
siesta:      8.01735  -3.95804  11.64131  2       78
siesta:     -5.68199  -7.02681  11.64296  2       79
siesta:      8.81225  -1.40140  11.64144  2       80
siesta:     -0.58245   9.17688  11.64242  2       81
siesta:     -8.56794  -2.57804  11.64351  2       82
siesta:     -5.49953   7.13608  11.64310  2       83
siesta:     -8.90213   0.07815  11.64371  2       84
siesta:     -7.29273   5.13979  11.64419  2       85
siesta:     -1.10200   4.94882  13.33908  1       86
siesta:      5.65512   7.04473  13.95316  2       87
siesta:      0.57337  -9.01221  13.95317  2       88
siesta:      5.51570  -7.08264  13.95267  2       89
siesta:      7.34008  -5.12349  13.95245  2       90
siesta:     -2.09555  -8.80188  13.95367  2       91
siesta:      3.37130   8.44567  13.95494  2       92
siesta:      8.54503   2.59252  13.95293  2       93
siesta:      8.91971  -0.05798  13.95290  2       94
siesta:     -6.65235  -6.09185  13.95446  2       95
siesta:     -8.10643  -3.84427  13.95483  2       96
siesta:     -8.77886   1.42036  13.95539  2       97
siesta:     -7.96675   3.97242  13.95627  2       98
siesta:     -1.93660   9.02490  13.95997  2       99
siesta:     -4.42087   7.95971  13.95911  2      100
siesta:      6.62004   6.10563  16.26400  2      101
siesta:      4.40098  -7.84094  16.26303  2      102
siesta:      1.90718  -8.81530  16.26345  2      103
siesta:     -3.38104  -8.39651  16.26425  2      104
siesta:      8.01715  -3.95833  16.26302  2      105
siesta:      8.07645   3.85670  16.26376  2      106
siesta:      2.09423   8.90319  16.26493  2      107
siesta:      8.81182  -1.40167  16.26342  2      108
siesta:     -5.68197  -7.02760  16.26478  2      109
siesta:     -8.56749  -2.57798  16.26563  2      110
siesta:     -8.90218   0.07846  16.26622  2      111
siesta:     -7.29649   5.14586  16.26700  2      112
siesta:     -0.58085   9.17696  16.26982  2      113
siesta:     -5.50659   7.14497  16.27018  2      114

siesta: System type = chain     

initatomlists: Number of atoms, orbitals, and projectors:    114  1466  1810

siesta: ******************** Simulation parameters ****************************
siesta:
siesta: The following are some of the parameters of the simulation.
siesta: A complete list of the parameters used, including default values,
siesta: can be found in file out.fdf
siesta:
redata: Non-Collinear-spin run           =     F
redata: SpinPolarized (Up/Down) run      =     T
redata: Number of spin components        =     2
redata: Long output                      =     F
redata: Number of Atomic Species         =        2
redata: Charge density info will appear in .RHO file
redata: Write Mulliken Pop.              =     Atomic and Orbital charges
redata: Mesh Cutoff                      =   200.0000  Ry
redata: Net charge of the system         =     0.0000 |e|
redata: Max. number of SCF Iter          =      150
redata: Performing Pulay mixing using    =     6 iterations
redata: Mix DM in first SCF step ?       =     F
redata: Write Pulay info on disk?        =     F
redata: Discard 1st Pulay DM after  kick =     F
redata: New DM Mixing Weight             =     0.2000
redata: New DM Occupancy tolerance       = 0.000000000001
redata: No kicks to SCF
redata: DM Mixing Weight for Kicks       =     0.5000
redata: DM Tolerance for SCF             =     0.000100
redata: Require Energy convergence for SCF =     F
redata: DM Energy tolerance for SCF      =     0.000100 eV
redata: Require Harris convergence for SCF =     F
redata: DM Harris energy tolerance for SCF =     0.000100 eV
redata: Antiferro initial spin density   =     F
redata: Using Saved Data (generic)   =     F
redata: Use continuation files for DM    =     T
redata: Neglect nonoverlap interactions  =     F
redata: Method of Calculation            =     Diagonalization
redata: Divide and Conquer               =     T
redata: Electronic Temperature           =     0.0019  Ry
redata: Fix the spin of the system       =     F
redata: Dynamics option                  =     CG coord. optimization
redata: Variable cell                    =     F
redata: Use continuation files for CG    =     F
redata: Max atomic displ per move        =     0.2835  Bohr
redata: Maximum number of CG moves       =      320
redata: Force tolerance                  =     0.0016  Ry/Bohr
redata: ***********************************************************************
Total number of electrons:   450.000000
Total ionic charge:   450.000000

* ProcessorY, Blocksize:    3  24

k-point displ. along   1 input, could be:     0.50    0.00
k-point displ. along   2 input, could be:     0.50    0.00
 Kpoints in:           16 . Kpoints trimmed:           16

siesta: k-grid: Number of k-points =    16
siesta: k-grid: Cutoff (effective) =    48.903 Ang
siesta: k-grid: Supercell and displacements
siesta: k-grid:    1   0   0      0.500
siesta: k-grid:    0   1   0      0.500
siesta: k-grid:    0   0  32      0.500
Naive supercell factors:     1    1    3

superc: Internal auxiliary supercell:     1 x     1 x     3  =       3
superc: Number of atoms, orbitals, and projectors:    342   4398   5430

* Maximum dynamic memory allocated =     2 MB

siesta:                 ==============================
                            Begin CG move =      0

zmatrix: Z-matrix coordinates: (Ang ; rad )
zmatrix: (Fractional coordinates have been converted to cartesian)
cartesian block    1 (   114 atoms)
      1.79329100      4.49049100      0.04451400
      2.99840000      3.73951100      0.04570600
      2.91890400     -3.74851800      0.04762000
      0.30359300     -4.76984800      0.04792000
      3.88399800     -2.71132200      0.04750500
      4.52108800      1.37279700      0.04783600
     -1.10889500     -4.65852400      0.04817800
     -3.52053300     -3.22417000      0.04862300
      4.71962100     -0.03037500      0.04786300
     -4.29035500     -2.03470800      0.04889100
     -4.64562500      0.75231000      0.04906700
     -4.21501100      2.10310200      0.04970700
     -1.01657000      4.73803000      0.04926700
     -2.32991600      4.19654000      0.05127400
      1.11953200      4.74093300      1.26607400
     -0.30384900      4.85592300      1.26719400
      3.50624200      3.23662100      1.26927800
      4.27161400      2.04292900      1.27009300
      4.24109600     -2.09382300      1.27014200
     -1.78879400     -4.44258600      1.27083300
      1.00908800     -4.66434600      1.27042900
      2.32855500     -4.14875400      1.27019000
      4.66105000     -0.74084500      1.27037100
     -3.00637500     -3.71835500      1.27105200
     -4.53411400     -1.36400100      1.27132000
     -2.91099400      3.77658200      1.27116800
     -3.86118300      2.72340700      1.27162600
     -4.71064200      0.04182100      1.27149300
      0.28635400      2.80888800      2.39473900
      4.52023800      1.37375800      2.49295500
      1.80455500      4.51366800      2.49342200
      3.00474100      3.74497900      2.49320500
     -1.10886500     -4.65804900      2.49373400
      3.88328100     -2.71085900      2.49309000
      2.91862600     -3.74828900      2.49315100
      0.30355600     -4.76945900      2.49356400
      4.71836200     -0.02936300      2.49305300
     -1.01626000      4.74021600      2.49363600
     -3.52055600     -3.22380300      2.49400000
     -4.29085800     -2.03475800      2.49403400
     -2.32917200      4.19148300      2.49393400
     -4.64477600      0.75245700      2.49419500
     -4.21525600      2.10316900      2.49409500
      1.00937400     -4.66486700      3.71593500
      4.27316500      2.04292400      3.71562200
      2.32869400     -4.14940000      3.71576200
      4.24174800     -2.09391000      3.71546700
     -1.78929000     -4.44294400      3.71626700
      4.66175400     -0.74105900      3.71541500
     -3.00675800     -3.71886000      3.71635000
      3.50694400      3.23599000      3.71625000
     -4.53508700     -1.36438700      3.71648800
     -4.71143400      0.04136100      3.71628400
     -2.91075300      3.77504200      3.71645500
     -3.86200100      2.72273300      3.71649400
      1.11845700      4.73316200      3.72020700
     -0.30341900      4.84985500      3.71949700
     -2.32863600      4.19245700      4.93610300
     -1.01601400      4.73507400      4.93753000
      0.30329700     -4.76965100      4.93826800
     -1.10890500     -4.65826400      4.93844500
      2.91913600     -3.74841400      4.93790100
      3.88416400     -2.71143700      4.93795600
      4.52189800      1.37264200      4.93807600
     -3.52092600     -3.22405500      4.93871200
      4.72008500     -0.03027000      4.93785200
     -4.29089500     -2.03494400      4.93881000
      2.99838400      3.73667000      4.94018600
     -4.64594000      0.75162300      4.93897600
     -4.21453600      2.10155900      4.93855500
      1.79153000      4.48231400      4.94152000
      1.00905500     -4.66435300      6.16061400
      2.32882900     -4.14889200      6.16046000
      3.50359500      3.23036100      6.16072600
      1.10776200      4.70489600      6.16143500
      4.27440600      2.04083600      6.16053600
     -1.78908600     -4.44270200      6.16098200
      4.24259800     -2.09450300      6.16031400
     -3.00678100     -3.71842700      6.16118600
      4.66324100     -0.74159100      6.16038100
     -0.30821700      4.85619600      6.16090100
     -4.53395600     -1.36423800      6.16147900
     -2.91022700      3.77625100      6.16125900
     -4.71080300      0.04135600      6.16158500
     -3.85914500      2.71985700      6.16183900
     -0.58315400      2.61880200      7.05873400
      2.99256100      3.72790800      7.38369100
      0.30341500     -4.76905500      7.38369800
      2.91878000     -3.74796900      7.38343300
      3.88420300     -2.71123400      7.38331700
     -1.10891900     -4.65775500      7.38395900
      1.78401600      4.46925500      7.38463400
      4.52183400      1.37190000      7.38357100
      4.72010400     -0.03068200      7.38355200
     -3.52026900     -3.22366600      7.38437900
     -4.28973700     -2.03429700      7.38457300
     -4.64557100      0.75162400      7.38487300
     -4.21582200      2.10211300      7.38533500
     -1.02480200      4.77576800      7.38729500
     -2.33942300      4.21209700      7.38683900
      3.50317500      3.23095900      8.60653500
      2.32890000     -4.14924500      8.60602100
      1.00923500     -4.66485400      8.60624400
     -1.78916600     -4.44324100      8.60666800
      4.24249000     -2.09465500      8.60601700
      4.27387200      2.04087900      8.60640800
      1.10821700      4.71136200      8.60702600
      4.66301300     -0.74173200      8.60622700
     -3.00676600     -3.71884200      8.60694500
     -4.53372100     -1.36420800      8.60739900
     -4.71083000      0.04151700      8.60771000
     -3.86113700      2.72307300      8.60812300
     -0.30737300      4.85623600      8.60961300
     -2.91395900      3.78095600      8.60980300


Z-matrix Symbol Section -------
Variables
Constants
------------ End of Z-matrix Information

                        ==============================

superc: Internal auxiliary supercell:     1 x     1 x     3  =       3
superc: Number of atoms, orbitals, and projectors:    342   4398   5430

outcell: Unit cell vectors (Ang):
       97.806123    0.000000    0.000000
        0.000000   97.806123    0.000000
        0.000000    0.000000    9.780612

outcell: Cell vector modules (Ang)   :   97.806123   97.806123    9.780612
outcell: Cell angles (23,13,12) (deg):     90.0000     90.0000     90.0000
outcell: Cell volume (Ang**3)        :  93561.7055
New_DM. Step:     1
Initializing Density Matrix...

InitMesh: MESH =   864 x   864 x    90 =    67184640
InitMesh: Mesh cutoff (required, used) =   200.000   215.674 Ry

* Maximum dynamic memory allocated =   615 MB

stepf: Fermi-Dirac step function

siesta: Program's energy decomposition (eV):
siesta: Ebs     =     -7581.529025
siesta: Eions   =     35426.574798
siesta: Ena     =     11780.541371
siesta: Ekin    =     10054.407342
siesta: Enl     =      1108.960935
siesta: DEna    =        -0.001004
siesta: DUscf   =         0.000000
siesta: DUext   =         0.000000
siesta: Exc     =     -5305.905307
siesta: eta*DQ  =         0.000000
siesta: Emadel  =         0.000000
siesta: Emeta   =         0.000000
siesta: Emolmec =         0.000000
siesta: Ekinion =         0.000000
siesta: Eharris =    -17235.017923
siesta: Etot    =    -17788.571463
siesta: FreeEng =    -17788.571463

siesta: iscf   Eharris(eV)      E_KS(eV)   FreeEng(eV)   dDmax  Ef(eV)
siesta:    1   -17235.0179   -17788.5715   -17788.5715  0.9412 -7.1441
timer: Routine,Calls,Time,% = IterSCF        1    1814.962  98.90
elaps: Routine,Calls,Wall,% = IterSCF        1     151.389  98.82
siesta:    2   -17393.7693   -17356.3917   -17356.4336  0.1664 -3.8832
siesta:    3   -17385.9236   -17373.0336   -17373.0419  0.0744 -4.8900
siesta:    4   -17384.8449   -17373.1568   -17373.1777  0.0816 -4.6049
siesta:    5   -17384.4313   -17380.0615   -17380.0716  0.0303 -5.3207
siesta:    6   -17384.4488   -17382.7624   -17382.7705  0.0149 -5.3244
siesta:    7   -17384.4163   -17383.6530   -17383.6608  0.0108 -5.2462
siesta:    8   -17384.3912   -17384.5968   -17384.6046  0.0063 -5.1744
siesta:    9   -17384.3825   -17384.8389   -17384.8467  0.0027 -5.1746
siesta:   10   -17384.3815   -17384.8316   -17384.8395  0.0019 -5.1790
siesta:   11   -17384.3819   -17384.6926   -17384.7005  0.0014 -5.1880
siesta:   12   -17384.3819   -17384.5011   -17384.5091  0.0005 -5.1851
siesta:   13   -17384.3818   -17384.4356   -17384.4435  0.0003 -5.1876
siesta:   14   -17384.3817   -17384.4095   -17384.4175  0.0002 -5.1836
siesta:   15   -17384.3817   -17384.3981   -17384.4060  0.0001 -5.1832
siesta:   16   -17384.3816   -17384.3892   -17384.3972  0.0001 -5.1835

siesta: E_KS(eV) =           -17384.3851

siesta: E_KS - E_eggbox =    -17384.3851

zmatrix: Atomic forces (eV/Ang ; eV/rad )
zmatrix: (No information if symbols are used)
cartesian    1 (   114 atoms)
     1   -0.041115   -0.051048    0.035345
     2   -0.016760   -0.008219    0.016975
     3   -0.003558   -0.008354    0.007233
     4    0.007219    0.000077    0.004665
     5    0.006673    0.004626    0.009877
     6    0.000535    0.005388    0.008591
     7    0.003112    0.001657    0.008857
     8    0.003201   -0.005955    0.006022
     9    0.000076   -0.013733    0.004590
    10   -0.008507    0.012784    0.015052
    11    0.002652   -0.010015    0.003676
    12    0.015048    0.005822   -0.007463
    13    0.022491   -0.046524    0.016427
    14    0.016192   -0.004464   -0.001694
    15   -0.018075    0.082536    0.017184
    16    0.017088    0.066228    0.034348
    17   -0.010449    0.005220    0.024055
    18   -0.013366    0.006259    0.007434
    19   -0.004668   -0.015483    0.015712
    20    0.011775   -0.006409    0.010011
    21   -0.011556   -0.009427    0.010491
    22    0.007152   -0.001589    0.012038
    23   -0.000678    0.013113    0.016150
    24   -0.001714   -0.002979    0.015927
    25    0.003086   -0.003223    0.002320
    26    0.017283   -0.000318    0.025689
    27    0.002265    0.000454   -0.000719
    28   -0.002439    0.027056    0.011756
    29   -0.044190   -0.427116    0.000869
    30   -0.005955    0.017584   -0.003267
    31    0.088352    0.131565    0.003543
    32   -0.049866    0.010596   -0.001961
    33    0.014100    0.000099   -0.008231
    34    0.004810    0.006688   -0.008939
    35   -0.009152   -0.009293   -0.003563
    36   -0.003374   -0.000832   -0.015413
    37    0.000130   -0.022315   -0.004935
    38   -0.040778    0.121318    0.002706
    39    0.004911   -0.005397   -0.012806
    40   -0.000974    0.011581   -0.005125
    41    0.075010   -0.014550   -0.008638
    42   -0.001555   -0.009995   -0.006341
    43    0.002128    0.005929   -0.003168
    44   -0.026986   -0.009315   -0.003612
    45   -0.015258    0.006977   -0.004101
    46    0.015762    0.006621   -0.009472
    47   -0.008478   -0.021213   -0.002545
    48    0.025814   -0.008974   -0.012637
    49    0.000999    0.025109   -0.008710
    50   -0.008895    0.007650   -0.003722
    51   -0.015904    0.001040   -0.020862
    52    0.004738   -0.010874   -0.005331
    53   -0.002650    0.037523   -0.001770
    54    0.023402   -0.012406   -0.015903
    55    0.005887   -0.004166    0.005723
    56   -0.035769    0.033588   -0.025311
    57    0.031226    0.014171   -0.045411
    58    0.026168   -0.004867    0.029386
    59    0.024269   -0.056352    0.030877
    60    0.022619   -0.000402    0.002988
    61   -0.006629    0.001975    0.007582
    62   -0.012058   -0.015831    0.009884
    63    0.014352    0.014601   -0.001176
    64    0.000656    0.016993    0.001541
    65    0.009393   -0.014300    0.003675
    66    0.001202   -0.022660    0.006357
    67   -0.012340    0.020350    0.008706
    68   -0.023739   -0.003783   -0.011634
    69    0.001773   -0.012045   -0.000415
    70    0.019116    0.010365    0.013859
    71   -0.044613   -0.044720   -0.015690
    72   -0.008060   -0.005091    0.011877
    73    0.003164   -0.000059    0.012127
    74   -0.010385   -0.002170    0.024550
    75   -0.057727    0.004156    0.043103
    76    0.000726    0.008127    0.001640
    77    0.010261   -0.002538    0.013606
    78   -0.007522   -0.012742    0.015889
    79    0.004356   -0.003619    0.015366
    80   -0.004328    0.015265    0.019015
    81    0.043458    0.097197    0.009152
    82    0.001351   -0.000523    0.005441
    83   -0.017382    0.029399    0.058188
    84   -0.002422    0.032474    0.019937
    85    0.042990    0.016416    0.013575
    86    0.075424   -0.267439   -0.019580
    87   -0.034134   -0.000051   -0.004602
    88    0.000812   -0.003466   -0.009459
    89   -0.009145   -0.012658   -0.006783
    90    0.006069    0.005267   -0.005260
    91    0.012284   -0.001781   -0.010134
    92   -0.047585    0.033877   -0.012126
    93    0.003585    0.017012    0.003838
    94    0.003203   -0.027970   -0.006701
    95    0.004280   -0.007521   -0.008952
    96   -0.005186    0.010518   -0.004477
    97    0.010938   -0.000350   -0.004983
    98    0.024099    0.022505   -0.001432
    99   -0.042264    0.164734    0.002846
   100   -0.054398    0.087374   -0.010258
   101   -0.016048    0.001682   -0.007094
   102    0.002541   -0.000020   -0.008655
   103   -0.014347   -0.004822   -0.009923
   104    0.016104   -0.003335   -0.011176
   105   -0.004279   -0.010348   -0.010321
   106    0.000334    0.012292   -0.004398
   107   -0.040807   -0.016926   -0.042654
   108   -0.000806    0.021377   -0.011508
   109    0.001934    0.001067   -0.010510
   110   -0.002536   -0.002929   -0.010735
   111   -0.003427    0.034348   -0.015178
   112    0.020895    0.012343   -0.023655
   113    0.018505   -0.013686   -0.044843
   114    0.022601   -0.003988   -0.057467


Variable forces (eV/Ang ; eV/rad )

siesta: Atomic forces (eV/Ang):
     1   -0.041115   -0.051048    0.035345
     2   -0.016760   -0.008219    0.016975
     3   -0.003558   -0.008354    0.007233
     4    0.007219    0.000077    0.004665
     5    0.006673    0.004626    0.009877
     6    0.000535    0.005388    0.008591
     7    0.003112    0.001657    0.008857
     8    0.003201   -0.005955    0.006022
     9    0.000076   -0.013733    0.004590
    10   -0.008507    0.012784    0.015052
    11    0.002652   -0.010015    0.003676
    12    0.015048    0.005822   -0.007463
    13    0.022491   -0.046524    0.016427
    14    0.016192   -0.004464   -0.001694
    15   -0.018075    0.082536    0.017184
    16    0.017088    0.066228    0.034348
    17   -0.010449    0.005220    0.024055
    18   -0.013366    0.006259    0.007434
    19   -0.004668   -0.015483    0.015712
    20    0.011775   -0.006409    0.010011
    21   -0.011556   -0.009427    0.010491
    22    0.007152   -0.001589    0.012038
    23   -0.000678    0.013113    0.016150
    24   -0.001714   -0.002979    0.015927
    25    0.003086   -0.003223    0.002320
    26    0.017283   -0.000318    0.025689
    27    0.002265    0.000454   -0.000719
    28   -0.002439    0.027056    0.011756
    29   -0.044190   -0.427116    0.000869
    30   -0.005955    0.017584   -0.003267
    31    0.088352    0.131565    0.003543
    32   -0.049866    0.010596   -0.001961
    33    0.014100    0.000099   -0.008231
    34    0.004810    0.006688   -0.008939
    35   -0.009152   -0.009293   -0.003563
    36   -0.003374   -0.000832   -0.015413
    37    0.000130   -0.022315   -0.004935
    38   -0.040778    0.121318    0.002706
    39    0.004911   -0.005397   -0.012806
    40   -0.000974    0.011581   -0.005125
    41    0.075010   -0.014550   -0.008638
    42   -0.001555   -0.009995   -0.006341
    43    0.002128    0.005929   -0.003168
    44   -0.026986   -0.009315   -0.003612
    45   -0.015258    0.006977   -0.004101
    46    0.015762    0.006621   -0.009472
    47   -0.008478   -0.021213   -0.002545
    48    0.025814   -0.008974   -0.012637
    49    0.000999    0.025109   -0.008710
    50   -0.008895    0.007650   -0.003722
    51   -0.015904    0.001040   -0.020862
    52    0.004738   -0.010874   -0.005331
    53   -0.002650    0.037523   -0.001770
    54    0.023402   -0.012406   -0.015903
    55    0.005887   -0.004166    0.005723
    56   -0.035769    0.033588   -0.025311
    57    0.031226    0.014171   -0.045411
    58    0.026168   -0.004867    0.029386
    59    0.024269   -0.056352    0.030877
    60    0.022619   -0.000402    0.002988
    61   -0.006629    0.001975    0.007582
    62   -0.012058   -0.015831    0.009884
    63    0.014352    0.014601   -0.001176
    64    0.000656    0.016993    0.001541
    65    0.009393   -0.014300    0.003675
    66    0.001202   -0.022660    0.006357
    67   -0.012340    0.020350    0.008706
    68   -0.023739   -0.003783   -0.011634
    69    0.001773   -0.012045   -0.000415
    70    0.019116    0.010365    0.013859
    71   -0.044613   -0.044720   -0.015690
    72   -0.008060   -0.005091    0.011877
    73    0.003164   -0.000059    0.012127
    74   -0.010385   -0.002170    0.024550
    75   -0.057727    0.004156    0.043103
    76    0.000726    0.008127    0.001640
    77    0.010261   -0.002538    0.013606
    78   -0.007522   -0.012742    0.015889
    79    0.004356   -0.003619    0.015366
    80   -0.004328    0.015265    0.019015
    81    0.043458    0.097197    0.009152
    82    0.001351   -0.000523    0.005441
    83   -0.017382    0.029399    0.058188
    84   -0.002422    0.032474    0.019937
    85    0.042990    0.016416    0.013575
    86    0.075424   -0.267439   -0.019580
    87   -0.034134   -0.000051   -0.004602
    88    0.000812   -0.003466   -0.009459
    89   -0.009145   -0.012658   -0.006783
    90    0.006069    0.005267   -0.005260
    91    0.012284   -0.001781   -0.010134
    92   -0.047585    0.033877   -0.012126
    93    0.003585    0.017012    0.003838
    94    0.003203   -0.027970   -0.006701
    95    0.004280   -0.007521   -0.008952
    96   -0.005186    0.010518   -0.004477
    97    0.010938   -0.000350   -0.004983
    98    0.024099    0.022505   -0.001432
    99   -0.042264    0.164734    0.002846
   100   -0.054398    0.087374   -0.010258
   101   -0.016048    0.001682   -0.007094
   102    0.002541   -0.000020   -0.008655
   103   -0.014347   -0.004822   -0.009923
   104    0.016104   -0.003335   -0.011176
   105   -0.004279   -0.010348   -0.010321
   106    0.000334    0.012292   -0.004398
   107   -0.040807   -0.016926   -0.042654
   108   -0.000806    0.021377   -0.011508
   109    0.001934    0.001067   -0.010510
   110   -0.002536   -0.002929   -0.010735
   111   -0.003427    0.034348   -0.015178
   112    0.020895    0.012343   -0.023655
   113    0.018505   -0.013686   -0.044843
   114    0.022601   -0.003988   -0.057467
----------------------------------------
   Tot   -0.002258    0.037788    0.084847
----------------------------------------
   Max    0.427116
   Res    0.036798    sqrt( Sum f_i^2 / 3N )
----------------------------------------
   Max    0.427116    constrained

Stress-tensor-Voigt (kbar):        0.04       -0.03       -0.37        0.01        0.00        0.00
(Free)E + p*V (eV/cell)   -17377.3726
Target enthalpy (eV/cell)   -17384.3931
 
mulliken: Atomic and Orbital Populations:

mulliken: Spin UP 

Species: Li                  
Atom  Qatom  Qorb
               2s      2s      2Ppy    2Ppz    2Ppx    
  29 -0.051  -0.048   0.017  -0.010  -0.001  -0.009
  86 -0.048  -0.044   0.014  -0.010   0.000  -0.008

Species: C                   
Atom  Qatom  Qorb
               2s      2s      2py     2pz     2px     2py     2pz     2px     
               2Pdxy   2Pdyz   2Pdz2   2Pdxz   2Pdx2-y2
   1  2.014   0.381   0.075   0.468   0.457   0.463   0.020   0.036   0.031
              0.011   0.017   0.019   0.024   0.011
   2  2.010   0.383   0.075   0.459   0.461   0.466   0.024   0.036   0.028
              0.008   0.018   0.019   0.021   0.013
   3  2.002   0.383   0.075   0.462   0.458   0.457   0.026   0.037   0.028
              0.007   0.019   0.019   0.020   0.012
   4  2.002   0.383   0.075   0.459   0.457   0.460   0.017   0.037   0.036
              0.012   0.013   0.019   0.026   0.007
   5  2.003   0.383   0.075   0.458   0.457   0.462   0.029   0.037   0.024
              0.007   0.021   0.019   0.018   0.012
   6  2.005   0.383   0.075   0.462   0.456   0.461   0.035   0.037   0.018
              0.011   0.025   0.019   0.014   0.009
   7  2.002   0.383   0.075   0.458   0.457   0.461   0.018   0.037   0.035
              0.011   0.013   0.019   0.026   0.008
   8  2.002   0.383   0.075   0.462   0.458   0.457   0.029   0.037   0.024
              0.007   0.021   0.019   0.018   0.012
   9  2.004   0.383   0.075   0.459   0.458   0.461   0.036   0.037   0.017
              0.012   0.026   0.019   0.013   0.007
  10  2.003   0.383   0.075   0.459   0.457   0.462   0.032   0.037   0.021
              0.009   0.023   0.019   0.016   0.010
  11  2.005   0.384   0.075   0.458   0.458   0.462   0.035   0.037   0.018
              0.012   0.025   0.019   0.014   0.008
  12  2.005   0.383   0.075   0.462   0.456   0.462   0.033   0.037   0.020
              0.009   0.024   0.019   0.015   0.011
  13  2.017   0.381   0.075   0.469   0.459   0.463   0.018   0.036   0.033
              0.013   0.016   0.020   0.025   0.009
  14  2.013   0.382   0.075   0.462   0.462   0.465   0.021   0.035   0.031
              0.009   0.017   0.019   0.023   0.012
  15  2.041   0.386   0.072   0.484   0.464   0.468   0.014   0.034   0.032
              0.014   0.017   0.020   0.026   0.011
  16  2.038   0.385   0.072   0.485   0.462   0.464   0.013   0.034   0.033
              0.016   0.016   0.020   0.026   0.010
  17  2.013   0.383   0.075   0.465   0.456   0.467   0.028   0.036   0.023
              0.007   0.021   0.019   0.019   0.014
  18  2.007   0.383   0.075   0.456   0.459   0.466   0.032   0.036   0.021
              0.010   0.023   0.019   0.016   0.010
  19  2.003   0.383   0.075   0.462   0.458   0.458   0.033   0.037   0.020
              0.009   0.024   0.019   0.015   0.010
  20  2.002   0.383   0.075   0.461   0.457   0.458   0.021   0.037   0.032
              0.010   0.016   0.019   0.023   0.010
  21  2.002   0.383   0.075   0.460   0.457   0.459   0.019   0.037   0.034
              0.011   0.014   0.019   0.025   0.008
  22  2.002   0.383   0.075   0.458   0.457   0.462   0.021   0.037   0.032
              0.008   0.015   0.019   0.024   0.011
  23  2.003   0.384   0.075   0.460   0.457   0.461   0.035   0.037   0.018
              0.012   0.025   0.019   0.014   0.007
  24  2.002   0.383   0.075   0.458   0.457   0.462   0.024   0.037   0.029
              0.007   0.017   0.019   0.022   0.012
  25  2.003   0.383   0.075   0.461   0.458   0.459   0.035   0.037   0.018
              0.011   0.025   0.019   0.013   0.008
  26  2.012   0.382   0.075   0.466   0.455   0.466   0.025   0.037   0.026
              0.008   0.019   0.019   0.021   0.014
  27  2.008   0.383   0.075   0.457   0.459   0.466   0.029   0.036   0.023
              0.008   0.021   0.019   0.018   0.012
  28  2.003   0.383   0.075   0.460   0.456   0.461   0.036   0.037   0.017
              0.013   0.026   0.019   0.013   0.007
  30  2.006   0.383   0.075   0.462   0.456   0.462   0.035   0.037   0.018
              0.011   0.025   0.019   0.014   0.009
  31  2.064   0.392   0.070   0.496   0.463   0.479   0.015   0.033   0.026
              0.013   0.019   0.019   0.025   0.014
  32  2.021   0.383   0.074   0.461   0.463   0.471   0.023   0.035   0.026
              0.009   0.019   0.019   0.022   0.015
  33  2.002   0.383   0.075   0.458   0.457   0.461   0.018   0.037   0.035
              0.011   0.013   0.019   0.026   0.008
  34  2.003   0.383   0.075   0.458   0.457   0.462   0.029   0.037   0.024
              0.007   0.021   0.019   0.018   0.012
  35  2.002   0.383   0.075   0.462   0.457   0.457   0.026   0.037   0.028
              0.007   0.019   0.019   0.020   0.012
  36  2.002   0.383   0.075   0.459   0.457   0.460   0.017   0.037   0.036
              0.012   0.013   0.019   0.026   0.007
  37  2.004   0.383   0.075   0.459   0.458   0.462   0.036   0.037   0.017
              0.012   0.026   0.019   0.013   0.007
  38  2.058   0.391   0.071   0.495   0.462   0.475   0.013   0.033   0.029
              0.015   0.018   0.019   0.026   0.011
  39  2.002   0.383   0.075   0.462   0.458   0.457   0.029   0.037   0.024
              0.007   0.021   0.019   0.018   0.012
  40  2.003   0.383   0.075   0.459   0.457   0.462   0.032   0.037   0.021
              0.009   0.023   0.019   0.016   0.010
  41  2.019   0.383   0.074   0.463   0.462   0.469   0.020   0.035   0.030
              0.010   0.017   0.019   0.023   0.013
  42  2.004   0.384   0.075   0.458   0.458   0.462   0.035   0.037   0.018
              0.012   0.025   0.019   0.014   0.008
  43  2.006   0.383   0.075   0.462   0.456   0.463   0.033   0.037   0.020
              0.009   0.024   0.019   0.015   0.011
  44  2.002   0.383   0.075   0.460   0.457   0.459   0.019   0.037   0.034
              0.011   0.014   0.019   0.025   0.008
  45  2.007   0.383   0.075   0.457   0.459   0.466   0.032   0.036   0.021
              0.009   0.023   0.019   0.016   0.010
  46  2.002   0.383   0.075   0.458   0.457   0.462   0.021   0.037   0.032
              0.008   0.015   0.019   0.024   0.011
  47  2.003   0.383   0.075   0.462   0.458   0.458   0.033   0.037   0.020
              0.009   0.024   0.019   0.015   0.010
  48  2.002   0.383   0.075   0.461   0.457   0.458   0.021   0.037   0.032
              0.010   0.016   0.019   0.023   0.010
  49  2.003   0.383   0.075   0.460   0.457   0.461   0.035   0.037   0.018
              0.012   0.025   0.019   0.014   0.007
  50  2.002   0.383   0.075   0.458   0.457   0.462   0.024   0.037   0.029
              0.007   0.017   0.019   0.022   0.012
  51  2.012   0.383   0.075   0.465   0.456   0.466   0.028   0.036   0.023
              0.007   0.021   0.019   0.019   0.014
  52  2.003   0.383   0.075   0.461   0.458   0.459   0.035   0.037   0.018
              0.011   0.025   0.019   0.014   0.008
  53  2.003   0.383   0.075   0.460   0.456   0.461   0.036   0.037   0.017
              0.013   0.026   0.019   0.013   0.007
  54  2.012   0.381   0.075   0.466   0.455   0.466   0.025   0.037   0.026
              0.008   0.019   0.019   0.021   0.014
  55  2.008   0.383   0.075   0.457   0.459   0.466   0.029   0.036   0.023
              0.008   0.021   0.019   0.018   0.012
  56  2.034   0.385   0.073   0.478   0.463   0.467   0.015   0.034   0.032
              0.014   0.017   0.020   0.026   0.011
  57  2.032   0.383   0.073   0.481   0.462   0.464   0.014   0.034   0.034
              0.016   0.016   0.020   0.026   0.010
  58  2.018   0.383   0.074   0.463   0.463   0.466   0.020   0.035   0.030
              0.009   0.018   0.019   0.023   0.013
  59  2.021   0.382   0.075   0.471   0.461   0.463   0.017   0.035   0.033
              0.013   0.017   0.020   0.025   0.010
  60  2.002   0.383   0.075   0.459   0.457   0.460   0.017   0.037   0.036
              0.012   0.013   0.019   0.026   0.007
  61  2.002   0.383   0.075   0.458   0.457   0.461   0.018   0.037   0.035
              0.011   0.013   0.019   0.026   0.008
  62  2.003   0.383   0.075   0.462   0.458   0.457   0.026   0.037   0.028
              0.007   0.019   0.019   0.020   0.012
  63  2.003   0.383   0.075   0.458   0.457   0.462   0.029   0.037   0.024
              0.007   0.021   0.019   0.018   0.012
  64  2.005   0.383   0.075   0.462   0.456   0.461   0.035   0.037   0.018
              0.011   0.025   0.019   0.014   0.009
  65  2.003   0.383   0.075   0.462   0.458   0.457   0.029   0.037   0.024
              0.007   0.021   0.019   0.018   0.012
  66  2.004   0.383   0.075   0.459   0.458   0.461   0.036   0.037   0.017
              0.012   0.026   0.019   0.013   0.007
  67  2.003   0.383   0.075   0.459   0.457   0.462   0.032   0.037   0.021
              0.009   0.023   0.019   0.016   0.010
  68  2.010   0.383   0.075   0.459   0.461   0.466   0.024   0.036   0.028
              0.008   0.018   0.019   0.022   0.013
  69  2.005   0.383   0.075   0.458   0.459   0.463   0.035   0.036   0.018
              0.012   0.025   0.019   0.014   0.008
  70  2.007   0.383   0.075   0.462   0.456   0.463   0.033   0.037   0.019
              0.009   0.024   0.019   0.015   0.011
  71  2.015   0.381   0.075   0.469   0.457   0.464   0.020   0.036   0.031
              0.011   0.017   0.019   0.024   0.011
  72  2.002   0.384   0.075   0.460   0.457   0.459   0.019   0.037   0.034
              0.011   0.014   0.019   0.025   0.008
  73  2.002   0.383   0.075   0.458   0.457   0.462   0.021   0.037   0.032
              0.008   0.015   0.019   0.024   0.011
  74  2.008   0.382   0.075   0.464   0.455   0.463   0.029   0.037   0.024
              0.007   0.021   0.019   0.018   0.013
  75  2.024   0.383   0.074   0.471   0.463   0.464   0.016   0.035   0.033
              0.014   0.016   0.019   0.025   0.010
  76  2.006   0.383   0.075   0.457   0.459   0.464   0.032   0.036   0.021
              0.009   0.023   0.019   0.016   0.010
  77  2.002   0.383   0.075   0.461   0.458   0.458   0.021   0.037   0.032
              0.010   0.016   0.019   0.023   0.010
  78  2.003   0.383   0.075   0.462   0.458   0.458   0.033   0.037   0.020
              0.009   0.024   0.019   0.015   0.010
  79  2.003   0.383   0.075   0.458   0.457   0.462   0.024   0.037   0.029
              0.007   0.017   0.019   0.022   0.012
  80  2.003   0.384   0.075   0.460   0.457   0.461   0.035   0.037   0.018
              0.012   0.025   0.019   0.014   0.007
  81  2.043   0.385   0.072   0.490   0.461   0.468   0.012   0.034   0.032
              0.016   0.016   0.020   0.026   0.010
  82  2.004   0.383   0.075   0.461   0.458   0.459   0.035   0.037   0.018
              0.011   0.025   0.019   0.014   0.008
  83  2.028   0.383   0.074   0.473   0.457   0.473   0.024   0.035   0.024
              0.009   0.020   0.019   0.022   0.015
  84  2.005   0.383   0.075   0.461   0.457   0.462   0.036   0.037   0.017
              0.013   0.026   0.019   0.013   0.007
  85  2.014   0.383   0.075   0.456   0.461   0.471   0.029   0.036   0.022
              0.009   0.021   0.019   0.019   0.013
  87  2.010   0.382   0.075   0.458   0.459   0.468   0.024   0.036   0.028
              0.008   0.018   0.019   0.022   0.013
  88  2.002   0.383   0.075   0.459   0.457   0.460   0.017   0.037   0.036
              0.012   0.013   0.019   0.026   0.007
  89  2.002   0.383   0.075   0.462   0.457   0.457   0.026   0.037   0.028
              0.007   0.019   0.019   0.020   0.012
  90  2.003   0.383   0.075   0.458   0.457   0.462   0.029   0.037   0.024
              0.007   0.021   0.019   0.018   0.012
  91  2.002   0.383   0.075   0.458   0.457   0.462   0.018   0.037   0.035
              0.011   0.013   0.019   0.026   0.008
  92  2.023   0.384   0.074   0.473   0.456   0.469   0.019   0.036   0.030
              0.012   0.017   0.019   0.024   0.011
  93  2.005   0.383   0.075   0.462   0.456   0.461   0.035   0.037   0.018
              0.011   0.026   0.019   0.013   0.009
  94  2.003   0.383   0.075   0.459   0.458   0.460   0.036   0.037   0.017
              0.012   0.026   0.019   0.013   0.007
  95  2.002   0.383   0.075   0.462   0.458   0.457   0.029   0.037   0.024
              0.007   0.021   0.019   0.018   0.012
  96  2.003   0.383   0.075   0.459   0.457   0.462   0.032   0.037   0.021
              0.009   0.023   0.019   0.016   0.010
  97  2.006   0.383   0.075   0.457   0.459   0.465   0.035   0.036   0.018
              0.012   0.025   0.019   0.014   0.008
  98  2.011   0.383   0.075   0.463   0.456   0.467   0.033   0.036   0.019
              0.009   0.024   0.019   0.015   0.012
  99  2.074   0.395   0.069   0.505   0.468   0.473   0.011   0.032   0.029
              0.017   0.019   0.019   0.025   0.012
 100  2.047   0.387   0.072   0.481   0.468   0.473   0.017   0.033   0.028
              0.011   0.019   0.019   0.024   0.016
 101  2.006   0.382   0.075   0.464   0.455   0.462   0.029   0.037   0.024
              0.007   0.021   0.019   0.018   0.013
 102  2.002   0.383   0.075   0.458   0.457   0.462   0.021   0.037   0.032
              0.008   0.015   0.019   0.024   0.011
 103  2.002   0.383   0.075   0.460   0.457   0.459   0.019   0.037   0.034
              0.011   0.014   0.019   0.025   0.008
 104  2.002   0.383   0.075   0.461   0.457   0.458   0.021   0.037   0.032
              0.010   0.016   0.019   0.023   0.010
 105  2.003   0.383   0.075   0.462   0.458   0.458   0.033   0.037   0.020
              0.009   0.024   0.019   0.015   0.010
 106  2.005   0.383   0.075   0.457   0.459   0.464   0.032   0.037   0.021
              0.009   0.023   0.019   0.016   0.010
 107  2.018   0.383   0.074   0.468   0.462   0.463   0.017   0.035   0.034
              0.013   0.016   0.019   0.025   0.010
 108  2.003   0.383   0.075   0.460   0.457   0.461   0.035   0.037   0.018
              0.012   0.025   0.019   0.014   0.007
 109  2.002   0.383   0.075   0.458   0.457   0.462   0.024   0.037   0.029
              0.007   0.017   0.019   0.022   0.012
 110  2.004   0.383   0.075   0.461   0.458   0.459   0.035   0.037   0.018
              0.011   0.025   0.019   0.014   0.008
 111  2.004   0.383   0.075   0.460   0.457   0.461   0.036   0.037   0.017
              0.013   0.026   0.019   0.013   0.007
 112  2.011   0.383   0.075   0.457   0.460   0.469   0.029   0.036   0.023
              0.008   0.021   0.019   0.018   0.013
 113  2.023   0.382   0.074   0.474   0.459   0.465   0.015   0.035   0.034
              0.015   0.016   0.019   0.026   0.009
 114  2.018   0.382   0.074   0.468   0.456   0.467   0.025   0.036   0.025
              0.008   0.020   0.019   0.021   0.014

mulliken: Qtot =      224.998

mulliken: Spin DOWN 

Species: Li                  
Atom  Qatom  Qorb
               2s      2s      2Ppy    2Ppz    2Ppx    
  29 -0.051  -0.048   0.017  -0.010  -0.001  -0.009
  86 -0.048  -0.044   0.014  -0.010   0.000  -0.008

Species: C                   
Atom  Qatom  Qorb
               2s      2s      2py     2pz     2px     2py     2pz     2px     
               2Pdxy   2Pdyz   2Pdz2   2Pdxz   2Pdx2-y2
   1  2.014   0.381   0.075   0.468   0.457   0.464   0.020   0.036   0.031
              0.011   0.017   0.019   0.024   0.011
   2  2.010   0.383   0.075   0.459   0.461   0.466   0.024   0.036   0.028
              0.008   0.018   0.019   0.021   0.013
   3  2.002   0.383   0.075   0.462   0.458   0.457   0.026   0.037   0.028
              0.007   0.019   0.019   0.020   0.012
   4  2.002   0.383   0.075   0.459   0.457   0.460   0.017   0.037   0.036
              0.012   0.013   0.019   0.026   0.007
   5  2.003   0.383   0.075   0.458   0.457   0.462   0.029   0.037   0.024
              0.007   0.021   0.019   0.018   0.012
   6  2.005   0.383   0.075   0.462   0.456   0.461   0.035   0.037   0.018
              0.011   0.025   0.019   0.014   0.009
   7  2.002   0.383   0.075   0.458   0.457   0.461   0.018   0.037   0.035
              0.011   0.013   0.019   0.026   0.008
   8  2.002   0.383   0.075   0.462   0.458   0.457   0.029   0.037   0.024
              0.007   0.021   0.019   0.018   0.012
   9  2.004   0.383   0.075   0.459   0.458   0.461   0.036   0.037   0.017
              0.012   0.026   0.019   0.013   0.007
  10  2.003   0.383   0.075   0.459   0.457   0.462   0.032   0.037   0.021
              0.009   0.023   0.019   0.016   0.010
  11  2.005   0.384   0.075   0.458   0.458   0.462   0.035   0.037   0.018
              0.012   0.025   0.019   0.014   0.008
  12  2.006   0.383   0.075   0.462   0.456   0.462   0.033   0.037   0.020
              0.009   0.024   0.019   0.015   0.011
  13  2.017   0.381   0.075   0.469   0.459   0.463   0.018   0.036   0.033
              0.013   0.016   0.020   0.025   0.009
  14  2.013   0.382   0.075   0.462   0.462   0.465   0.021   0.035   0.031
              0.009   0.017   0.019   0.023   0.012
  15  2.041   0.386   0.072   0.484   0.463   0.468   0.014   0.034   0.032
              0.014   0.017   0.020   0.026   0.011
  16  2.038   0.385   0.072   0.485   0.462   0.464   0.013   0.034   0.033
              0.016   0.016   0.020   0.026   0.010
  17  2.014   0.383   0.075   0.465   0.456   0.467   0.028   0.036   0.023
              0.007   0.021   0.019   0.019   0.014
  18  2.007   0.383   0.075   0.456   0.459   0.466   0.032   0.036   0.021
              0.010   0.023   0.019   0.016   0.010
  19  2.003   0.383   0.075   0.462   0.458   0.458   0.033   0.037   0.020
              0.009   0.024   0.019   0.015   0.010
  20  2.002   0.383   0.075   0.461   0.457   0.458   0.021   0.037   0.032
              0.010   0.016   0.019   0.023   0.010
  21  2.002   0.383   0.075   0.460   0.457   0.459   0.019   0.037   0.034
              0.011   0.014   0.019   0.025   0.008
  22  2.002   0.383   0.075   0.458   0.457   0.462   0.021   0.037   0.032
              0.008   0.015   0.019   0.024   0.011
  23  2.003   0.384   0.075   0.460   0.457   0.461   0.035   0.037   0.018
              0.012   0.025   0.019   0.014   0.007
  24  2.002   0.383   0.075   0.458   0.457   0.462   0.024   0.037   0.029
              0.007   0.017   0.019   0.022   0.012
  25  2.003   0.383   0.075   0.461   0.458   0.459   0.035   0.037   0.018
              0.011   0.025   0.019   0.013   0.008
  26  2.013   0.382   0.075   0.466   0.455   0.466   0.025   0.037   0.026
              0.008   0.019   0.019   0.021   0.014
  27  2.007   0.383   0.075   0.457   0.459   0.466   0.029   0.036   0.023
              0.008   0.021   0.019   0.018   0.012
  28  2.003   0.383   0.075   0.460   0.456   0.461   0.036   0.037   0.017
              0.013   0.026   0.019   0.013   0.007
  30  2.007   0.383   0.075   0.462   0.456   0.462   0.035   0.037   0.018
              0.011   0.025   0.019   0.014   0.009
  31  2.064   0.393   0.070   0.496   0.463   0.479   0.015   0.033   0.026
              0.013   0.019   0.019   0.025   0.014
  32  2.021   0.383   0.074   0.461   0.463   0.471   0.023   0.035   0.026
              0.009   0.019   0.019   0.022   0.015
  33  2.002   0.383   0.075   0.458   0.457   0.461   0.018   0.037   0.035
              0.011   0.013   0.019   0.026   0.008
  34  2.003   0.383   0.075   0.458   0.457   0.462   0.029   0.037   0.024
              0.007   0.021   0.019   0.018   0.012
  35  2.002   0.383   0.075   0.462   0.457   0.457   0.026   0.037   0.028
              0.007   0.019   0.019   0.020   0.012
  36  2.002   0.383   0.075   0.459   0.457   0.460   0.017   0.037   0.036
              0.012   0.013   0.019   0.026   0.007
  37  2.004   0.383   0.075   0.459   0.458   0.462   0.036   0.037   0.017
              0.012   0.026   0.019   0.013   0.007
  38  2.058   0.391   0.071   0.495   0.462   0.475   0.013   0.033   0.029
              0.015   0.018   0.019   0.026   0.011
  39  2.002   0.383   0.075   0.462   0.458   0.457   0.029   0.037   0.024
              0.007   0.021   0.019   0.018   0.012
  40  2.003   0.383   0.075   0.459   0.457   0.462   0.032   0.037   0.021
              0.009   0.023   0.019   0.016   0.010
  41  2.019   0.382   0.074   0.463   0.462   0.469   0.020   0.035   0.030
              0.010   0.017   0.019   0.023   0.013
  42  2.004   0.384   0.075   0.458   0.458   0.462   0.035   0.037   0.018
              0.012   0.025   0.019   0.014   0.008
  43  2.007   0.383   0.075   0.462   0.456   0.463   0.033   0.037   0.020
              0.009   0.024   0.019   0.015   0.011
  44  2.002   0.383   0.075   0.460   0.457   0.459   0.019   0.037   0.034
              0.011   0.014   0.019   0.025   0.008
  45  2.007   0.383   0.075   0.457   0.459   0.466   0.032   0.036   0.021
              0.009   0.023   0.019   0.016   0.010
  46  2.002   0.383   0.075   0.458   0.457   0.462   0.021   0.037   0.032
              0.008   0.015   0.019   0.024   0.011
  47  2.003   0.383   0.075   0.462   0.458   0.458   0.033   0.037   0.020
              0.009   0.024   0.019   0.015   0.010
  48  2.002   0.383   0.075   0.461   0.457   0.458   0.021   0.037   0.032
              0.010   0.016   0.019   0.023   0.010
  49  2.003   0.383   0.075   0.460   0.457   0.461   0.035   0.037   0.018
              0.012   0.025   0.019   0.014   0.007
  50  2.002   0.383   0.075   0.458   0.457   0.462   0.024   0.037   0.029
              0.007   0.017   0.019   0.022   0.012
  51  2.012   0.383   0.075   0.465   0.456   0.466   0.028   0.036   0.023
              0.007   0.021   0.019   0.019   0.014
  52  2.003   0.383   0.075   0.461   0.458   0.459   0.035   0.037   0.018
              0.011   0.025   0.019   0.014   0.008
  53  2.003   0.383   0.075   0.460   0.456   0.461   0.036   0.037   0.017
              0.013   0.026   0.019   0.013   0.007
  54  2.012   0.381   0.075   0.466   0.455   0.466   0.025   0.037   0.026
[...]
 111  2.004   0.383   0.075   0.461   0.457   0.462   0.036   0.037   0.017
              0.013   0.026   0.019   0.013   0.007
 112  2.011   0.383   0.075   0.457   0.460   0.468   0.029   0.036   0.023
              0.008   0.021   0.019   0.018   0.013
 113  2.023   0.382   0.074   0.474   0.459   0.464   0.015   0.035   0.034
              0.015   0.016   0.019   0.026   0.009
 114  2.019   0.382   0.074   0.468   0.457   0.468   0.025   0.036   0.025
              0.008   0.020   0.019   0.021   0.014

mulliken: Qtot =      225.000

* Maximum dynamic memory allocated =   765 MB

outcoor: Relaxed atomic coordinates (Ang):                  
    1.78549832    4.48741808    0.04576307   2       1  C
    2.98907370    3.73570262    0.04671860   2       2  C
    2.91946252   -3.74960411    0.04816301   2       3  C
    0.30394302   -4.77091193    0.04806068   2       4  C
    3.88417644   -2.71128545    0.04823101   2       5  C
    4.51826898    1.37459651    0.04936642   2       6  C
   -1.10829386   -4.65848774    0.04832956   2       7  C
   -3.52000287   -3.22292304    0.04896984   2       8  C
    4.71809952   -0.02910392    0.04884859   2       9  C
   -4.29015407   -2.03267062    0.04947449   2      10  C
   -4.64264410    0.75498672    0.04900503   2      11  C
   -4.20840868    2.10484324    0.04914044   2      12  C
   -1.01413503    4.74016259    0.05109258   2      13  C
   -2.32453961    4.19537941    0.05230977   2      14  C
    1.11844298    4.75089280    1.26784265   2      15  C
   -0.30228917    4.86541101    1.26892951   2      16  C
    3.49954694    3.23745943    1.27099770   2      17  C
    4.26596545    2.04461833    1.27171244   2      18  C
    4.24106482   -2.09364386    1.27110278   2      19  C
   -1.78842157   -4.44268398    1.27102559   2      20  C
    1.00968331   -4.66640695    1.27064598   2      21  C
    2.32930991   -4.15056450    1.27080415   2      22  C
    4.66013873   -0.73990090    1.27143374   2      23  C
   -3.00598007   -3.71784432    1.27154316   2      24  C
   -4.53359873   -1.36116632    1.27167376   2      25  C
   -2.90310217    3.77401002    1.27260998   2      26  C
   -3.85610366    2.72390205    1.27236790   2      27  C
   -4.71027828    0.04486696    1.27178753   2      28  C
    0.28101914    2.71320133    2.38979901   1      29  Li
    4.51677911    1.37511876    2.49339620   2      30  C
    1.80397010    4.52514862    2.49390572   2      31  C
    2.99844742    3.74911527    2.49356296   2      32  C
   -1.10813360   -4.65837597    2.49349064   2      33  C
    3.88341754   -2.71097089    2.49353916   2      34  C
    2.91920976   -3.74934610    2.49347287   2      35  C
    0.30370000   -4.77089031    2.49321533   2      36  C
    4.71717341   -0.02831214    2.49365135   2      37  C
   -1.01345364    4.74865500    2.49411265   2      38  C
   -3.52012992   -3.22227685    2.49397731   2      39  C
   -4.29004819   -2.03231579    2.49411863   2      40  C
   -2.32007451    4.18930862    2.49420653   2      41  C
   -4.64493747    0.75450276    2.49435439   2      42  C
   -4.21341015    2.10441177    2.49428583   2      43  C
    1.00947258   -4.66626530    3.71586251   2      44  C
    4.26683921    2.04406329    3.71547611   2      45  C
    2.32930457   -4.15038137    3.71592794   2      46  C
    4.24115366   -2.09371649    3.71610516   2      47  C
   -1.78817299   -4.44251095    3.71607251   2      48  C
    4.66053443   -0.73978023    3.71592497   2      49  C
   -3.00596460   -3.71760609    3.71635398   2      50  C
    3.49857652    3.23576340    3.71579313   2      51  C
   -4.53406739   -1.36180569    3.71662622   2      52  C
   -4.71052047    0.04455332    3.71672570   2      53  C
   -2.90072397    3.77100075    3.71626888   2      54  C
   -3.85468315    2.72189728    3.71658823   2      55  C
    1.11644978    4.73973633    3.71960054   2      56  C
   -0.30206596    4.85616721    3.71890571   2      57  C
   -2.32326663    4.19294496    4.93686732   2      58  C
   -1.01378352    4.73892854    4.93795824   2      59  C
    0.30396250   -4.77075266    4.93843740   2      60  C
   -1.10835848   -4.65828801    4.93864848   2      61  C
    2.91945969   -3.74947553    4.93853229   2      62  C
    3.88422318   -2.71116826    4.93871375   2      63  C
    4.51929141    1.37444072    4.93829987   2      64  C
   -3.52002969   -3.22290846    4.93907458   2      65  C
    4.71853231   -0.02922137    4.93862768   2      66  C
   -4.29038812   -2.03273854    4.93920233   2      67  C
    2.98805176    3.73221601    4.94086273   2      68  C
   -4.64220476    0.75429700    4.93988405   2      69  C
   -4.20683712    2.10315478    4.93999243   2      70  C
    1.78365493    4.47989509    4.94206474   2      71  C
    1.00966854   -4.66626716    6.16095700   2      72  C
    2.32951759   -4.15047093    6.16108808   2      73  C
    3.49685593    3.22903411    6.16180605   2      74  C
    1.10218301    4.70751240    6.16293055   2      75  C
    4.27281652    2.04246405    6.16137629   2      76  C
   -1.78837085   -4.44263390    6.16131808   2      77  C
    4.24196234   -2.09372665    6.16140499   2      78  C
   -3.00596894   -3.71774097    6.16173287   2      79  C
    4.66189063   -0.73996999    6.16158995   2      80  C
   -0.31053683    4.86810456    6.16211111   2      81  C
   -4.53373037   -1.36184143    6.16202197   2      82  C
   -2.91050658    3.78583522    6.16254619   2      83  C
   -4.70904991    0.04476970    6.16265103   2      84  C
   -3.85209367    2.72345490    6.16269620   2      85  C
   -0.56964929    2.57068326    7.05506725   1      86  Li
    2.98478287    3.72614808    7.38393266   2      87  C
    0.30369782   -4.77071729    7.38355066   2      88  C
    2.91950552   -3.74911631    7.38371721   2      89  C
    3.88421327   -2.71122056    7.38390355   2      90  C
   -1.10798682   -4.65822147    7.38375542   2      91  C
    1.77724994    4.46844116    7.38456796   2      92  C
    4.52244077    1.37365213    7.38438602   2      93  C
    4.71967970   -0.02935753    7.38417928   2      94  C
   -3.51992707   -3.22233765    7.38441818   2      95  C
   -4.28965016   -2.03267060    7.38463357   2      96  C
   -4.64101153    0.75547490    7.38491080   2      97  C
   -4.20850345    2.10492389    7.38526192   2      98  C
   -1.02895217    4.78893392    7.38693408   2      99  C
   -2.34358098    4.22759635    7.38661358   2     100  C
    3.49543298    3.22941036    8.60692784   2     101  C
    2.32935200   -4.15047558    8.60620366   2     102  C
    1.00951128   -4.66626146    8.60612430   2     103  C
   -1.78814051   -4.44262109    8.60647223   2     104  C
    4.24196233   -2.09380879    8.60641652   2     105  C
    4.27151538    2.04242256    8.60711530   2     106  C
    1.10208287    4.70823686    8.60630687   2     107  C
    4.66178463   -0.74007552    8.60658014   2     108  C
   -3.00578354   -3.71766404    8.60683240   2     109  C
   -4.53362717   -1.36194057    8.60731070   2     110  C
   -4.70912051    0.04496709    8.60720623   2     111  C
   -3.85358715    2.72545968    8.60755618   2     112  C
   -0.31023136    4.86031892    8.60843176   2     113  C
   -2.91090620    3.78670836    8.60900387   2     114  C

zmatrix: Z-matrix coordinates: (Ang ; rad )
zmatrix: (Fractional coordinates have been converted to cartesian)
cartesian block    1 (   114 atoms)
      1.78549832      4.48741808      0.04576307
      2.98907370      3.73570262      0.04671860
      2.91946252     -3.74960411      0.04816301
      0.30394302     -4.77091193      0.04806068
      3.88417644     -2.71128545      0.04823101
      4.51826898      1.37459651      0.04936642
     -1.10829386     -4.65848774      0.04832956
     -3.52000287     -3.22292304      0.04896984
      4.71809952     -0.02910392      0.04884859
     -4.29015407     -2.03267062      0.04947449
     -4.64264410      0.75498672      0.04900503
     -4.20840868      2.10484324      0.04914044
     -1.01413503      4.74016259      0.05109258
     -2.32453961      4.19537941      0.05230977
      1.11844298      4.75089280      1.26784265
     -0.30228917      4.86541101      1.26892951
      3.49954694      3.23745943      1.27099770
      4.26596545      2.04461833      1.27171244
      4.24106482     -2.09364386      1.27110278
     -1.78842157     -4.44268398      1.27102559
      1.00968331     -4.66640695      1.27064598
      2.32930991     -4.15056450      1.27080415
      4.66013873     -0.73990090      1.27143374
     -3.00598007     -3.71784432      1.27154316
     -4.53359873     -1.36116632      1.27167376
     -2.90310217      3.77401002      1.27260998
     -3.85610366      2.72390205      1.27236790
     -4.71027828      0.04486696      1.27178753
      0.28101914      2.71320133      2.38979901
      4.51677911      1.37511876      2.49339620
      1.80397010      4.52514862      2.49390572
      2.99844742      3.74911527      2.49356296
     -1.10813360     -4.65837597      2.49349064
      3.88341754     -2.71097089      2.49353916
      2.91920976     -3.74934610      2.49347287
      0.30370000     -4.77089031      2.49321533
      4.71717341     -0.02831214      2.49365135
     -1.01345364      4.74865500      2.49411265
     -3.52012992     -3.22227685      2.49397731
     -4.29004819     -2.03231579      2.49411863
     -2.32007451      4.18930862      2.49420653
     -4.64493747      0.75450276      2.49435439
     -4.21341015      2.10441177      2.49428583
      1.00947258     -4.66626530      3.71586251
      4.26683921      2.04406329      3.71547611
      2.32930457     -4.15038137      3.71592794
      4.24115366     -2.09371649      3.71610516
     -1.78817299     -4.44251095      3.71607251
      4.66053443     -0.73978023      3.71592497
     -3.00596460     -3.71760609      3.71635398
      3.49857652      3.23576340      3.71579313
     -4.53406739     -1.36180569      3.71662622
     -4.71052047      0.04455332      3.71672570
     -2.90072397      3.77100075      3.71626888
     -3.85468315      2.72189728      3.71658823
      1.11644978      4.73973633      3.71960054
     -0.30206596      4.85616721      3.71890571
     -2.32326663      4.19294496      4.93686732
     -1.01378352      4.73892854      4.93795824
      0.30396250     -4.77075266      4.93843740
     -1.10835848     -4.65828801      4.93864848
      2.91945969     -3.74947553      4.93853229
      3.88422318     -2.71116826      4.93871375
      4.51929141      1.37444072      4.93829987
     -3.52002969     -3.22290846      4.93907458
      4.71853231     -0.02922137      4.93862768
     -4.29038812     -2.03273854      4.93920233
      2.98805176      3.73221601      4.94086273
     -4.64220476      0.75429700      4.93988405
     -4.20683712      2.10315478      4.93999243
      1.78365493      4.47989509      4.94206474
      1.00966854     -4.66626716      6.16095700
      2.32951759     -4.15047093      6.16108808
      3.49685593      3.22903411      6.16180605
      1.10218301      4.70751240      6.16293055
      4.27281652      2.04246405      6.16137629
     -1.78837085     -4.44263390      6.16131808
      4.24196234     -2.09372665      6.16140499
     -3.00596894     -3.71774097      6.16173287
      4.66189063     -0.73996999      6.16158995
     -0.31053683      4.86810456      6.16211111
     -4.53373037     -1.36184143      6.16202197
     -2.91050658      3.78583522      6.16254619
     -4.70904991      0.04476970      6.16265103
     -3.85209367      2.72345490      6.16269620
     -0.56964929      2.57068326      7.05506725
      2.98478287      3.72614808      7.38393266
      0.30369782     -4.77071729      7.38355066
      2.91950552     -3.74911631      7.38371721
      3.88421327     -2.71122056      7.38390355
     -1.10798682     -4.65822147      7.38375542
      1.77724994      4.46844116      7.38456796
      4.52244077      1.37365213      7.38438602
      4.71967970     -0.02935753      7.38417928
     -3.51992707     -3.22233765      7.38441818
     -4.28965016     -2.03267060      7.38463357
     -4.64101153      0.75547490      7.38491080
     -4.20850345      2.10492389      7.38526192
     -1.02895217      4.78893392      7.38693408
     -2.34358098      4.22759635      7.38661358
      3.49543298      3.22941036      8.60692784
      2.32935200     -4.15047558      8.60620366
      1.00951128     -4.66626146      8.60612430
     -1.78814051     -4.44262109      8.60647223
      4.24196233     -2.09380879      8.60641652
      4.27151538      2.04242256      8.60711530
      1.10208287      4.70823686      8.60630687
      4.66178463     -0.74007552      8.60658014
     -3.00578354     -3.71766404      8.60683240
     -4.53362717     -1.36194057      8.60731070
     -4.70912051      0.04496709      8.60720623
     -3.85358715      2.72545968      8.60755618
     -0.31023136      4.86031892      8.60843176
     -2.91090620      3.78670836      8.60900387


Z-matrix Symbol Section -------
Variables
Constants
------------ End of Z-matrix Information


coxmol: Writing XMOL coordinates into file C112.xyz                                                        
siesta: PDOS info: 
siesta: e1, e2, sigma, nhist:   -24.00 eV   15.00 eV    0.10 eV   1000

siesta: Program's energy decomposition (eV):
siesta: Ebs     =     -6808.165582
siesta: Eions   =     35426.574798
siesta: Ena     =     11781.007472
siesta: Ekin    =     12818.603893
siesta: Enl     =      -499.375353
siesta: DEna    =      -836.502285
siesta: DUscf   =        49.945481
siesta: DUext   =         0.000000
siesta: Exc     =     -5271.522399
siesta: eta*DQ  =         0.000000
siesta: Emadel  =         0.000000
siesta: Emeta   =         0.000000
siesta: Emolmec =         0.000000
siesta: Ekinion =         0.000000
siesta: Eharris =    -17384.417656
siesta: Etot    =    -17384.417988
siesta: FreeEng =    -17384.425802

siesta: Final energy (eV):
siesta:  Band Struct. =   -6808.165582
siesta:       Kinetic =   12818.603893
siesta:       Hartree =  494389.626676
siesta:    Ext. field =       0.000000
siesta:   Exch.-corr. =   -5271.522399
siesta:  Ion-electron =-1001519.882030
siesta:       Ion-ion =  482198.755871
siesta:       Ekinion =       0.000000
siesta:         Total =  -17384.417988

siesta: Stress tensor (static) (eV/Ang**3):
siesta:     0.000016    0.000002    0.000000
siesta:     0.000002    0.000002    0.000001
siesta:     0.000000    0.000001   -0.000233

siesta: Cell volume =      93561.705545 Ang**3

siesta: Pressure (static):
siesta:                Solid            Molecule  Units
siesta:           0.00000078          0.00000078  Ry/Bohr**3
siesta:           0.00007168          0.00007168  eV/Ang**3
siesta:           0.11484789          0.11484789  kBar
(Free)E+ p_basis*V_orbitals  =      -17325.162943
(Free)Eharris+ p_basis*V_orbitals  =      -17325.159352

siesta: Total spin polarization (Qup-Qdown) =    0.000000

siesta: Electric dipole (a.u.)  =   -0.068353    1.199704    0.000000
siesta: Electric dipole (Debye) =   -0.173737    3.049346    0.000000

* Maximum dynamic memory allocated : Node    0 =   765 MB
* Maximum dynamic memory allocated : Node    1 =   726 MB
* Maximum dynamic memory allocated : Node    2 =   726 MB
* Maximum dynamic memory allocated : Node    3 =   728 MB
* Maximum dynamic memory allocated : Node    4 =   674 MB
* Maximum dynamic memory allocated : Node    5 =   647 MB
* Maximum dynamic memory allocated : Node    6 =   647 MB
* Maximum dynamic memory allocated : Node    7 =   647 MB
* Maximum dynamic memory allocated : Node    8 =   754 MB
* Maximum dynamic memory allocated : Node    9 =   723 MB
* Maximum dynamic memory allocated : Node   10 =   721 MB
* Maximum dynamic memory allocated : Node   11 =   720 MB

* Maximum memory occured during redistribXZ                   

timer: CPU execution times:
timer:  Routine       Calls   Time/call    Tot.time        %
timer:  siesta            1  181896.705  181896.705   100.00
timer:  Setup             1      14.130      14.130     0.01
timer:  bands             1       0.012       0.012     0.00
timer:  writewave         1       0.024       0.024     0.00
timer:  KSV_init          1       0.000       0.000     0.00
timer:  IterMD           16   10985.007  175760.113    96.63
timer:  hsparse          16       1.810      28.954     0.02
timer:  overlap          16       0.815      13.038     0.01
timer:  IterSCF         102    1681.617  171524.959    94.30
timer:  kinefsm          32       0.760      24.305     0.01
timer:  nlefsm           32      19.929     637.742     0.35
timer:  DHSCF           119     183.216   21802.761    11.99
timer:  DHSCF1            1      14.619      14.619     0.01
timer:  DHSCF2           16     101.857    1629.712     0.90
timer:  REORD          1345       0.461     619.889     0.34
timer:  POISON          135      48.755    6581.866     3.62
timer:  DHSCF3          119     162.070   19286.293    10.60
timer:  rhoofd          119      30.024    3572.868     1.96
timer:  cellXC          119       1.958     232.971     0.13
timer:  vmat            118      48.623    5737.529     3.15
timer:  MolMec           32       0.000       0.009     0.00
timer:  diagon          102    1495.720  152563.468    83.87
timer:  cdiag           820     149.772   80110.920    44.04
timer:  cdiag1          820       4.957    2705.621     1.49
timer:  cdiag2          820      16.221    8841.547     4.86
timer:  cdiag3          820     127.304   67851.974    37.30
timer:  cdiag4          820       1.212     673.257     0.37
timer:  DHSCF4           16      45.954     735.259     0.40
timer:  dfscf            16      42.579     681.260     0.37
timer:  overfsm          16       0.676      10.822     0.01
timer:  pdos              1    5769.961    5769.961     3.17
timer:  optical           1       0.000       0.000     0.00
  

elaps: ELAPSED times:
elaps:  Routine       Calls   Time/call    Tot.time        %
elaps:  siesta            1   15162.839   15162.839   100.00
elaps:  Setup             1       1.333       1.333     0.01
elaps:  bands             1       0.001       0.001     0.00
elaps:  writewave         1       0.002       0.002     0.00
elaps:  KSV_init          1       0.000       0.000     0.00
elaps:  IterMD           16     915.679   14650.857    96.62
elaps:  hsparse          16       0.174       2.785     0.02
elaps:  overlap          16       0.076       1.210     0.01
elaps:  IterSCF         102     140.168   14297.118    94.29
elaps:  kinefsm          32       0.072       2.291     0.02
elaps:  nlefsm           32       1.790      57.291     0.38
elaps:  DHSCF           119      15.570    1852.865    12.22
elaps:  DHSCF1            1       1.206       1.206     0.01
elaps:  DHSCF2           16       8.493     135.881     0.90
elaps:  REORD          1345       0.039      52.401     0.35
elaps:  POISON          135       4.077     550.363     3.63
elaps:  DHSCF3          119      13.501    1606.602    10.60
elaps:  rhoofd          119       4.228     503.127     3.32
elaps:  cellXC          119       0.154      18.297     0.12
elaps:  vmat            118       4.035     476.140     3.14
elaps:  MolMec           32       0.000       0.000     0.00
elaps:  diagon          102     124.661   12715.420    83.86
elaps:  cdiag           820      11.706    9598.524    63.30
elaps:  cdiag1          820       0.408     334.743     2.21
elaps:  cdiag2          820       1.381    1132.239     7.47
elaps:  cdiag3          820       9.778    8018.224    52.88
elaps:  cdiag4          820       0.134     110.174     0.73
elaps:  DHSCF4           16       6.066      97.053     0.64
elaps:  dfscf            16       5.669      90.699     0.60
elaps:  overfsm          16       0.064       1.031     0.01
elaps:  pdos              1     496.915     496.915     3.28
elaps:  optical           1       0.000       0.000     0.00
  
>> End of run:  17-JUL-2019   8:43:32
