
     Program PWSCF v.6.4.1 starts on 23Mar2023 at 23: 0:25 

     This program is part of the open-source Quantum ESPRESSO suite
     for quantum simulation of materials; please cite
         "P. Giannozzi et al., J. Phys.:Condens. Matter 21 395502 (2009);
         "P. Giannozzi et al., J. Phys.:Condens. Matter 29 465901 (2017);
          URL http://www.quantum-espresso.org", 
     in publications or presentations arising from this work. More details at
     http://www.quantum-espresso.org/quote

     Parallel version (MPI & OpenMP), running on       4 processor cores
     Number of MPI processes:                 1
     Threads/MPI process:                     4

     MPI processes distributed on     1 nodes
     Waiting for input...
     Reading input from standard input

     Current dimensions of program PWSCF are:
     Max number of different atomic species (ntypx) = 10
     Max number of k-points (npk) =  40000
     Max angular momentum in pseudopotentials (lmaxx) =  3
               file Si.pbe-n-kjpaw_psl.1.0.0.UPF: wavefunction(s)  3S 3P renormalized

     Subspace diagonalization in iterative solution of the eigenvalue problem:
     a serial algorithm will be used


     G-vector sticks info
     --------------------
     sticks:   dense  smooth     PW     G-vecs:    dense   smooth      PW
     Sum         283     283    109                 3143     3143     701



     bravais-lattice index     =            0
     lattice parameter (alat)  =       7.2125  a.u.
     unit-cell volume          =     265.3020 (a.u.)^3
     number of atoms/cell      =            2
     number of atomic types    =            1
     number of electrons       =         8.00
     number of Kohn-Sham states=            4
     kinetic-energy cutoff     =      20.0000  Ry
     charge density cutoff     =      80.0000  Ry
     convergence threshold     =      1.0E-09
     mixing beta               =       0.3000
     number of iterations used =            8  plain     mixing
     Exchange-correlation      = SLA PW PBX PBC ( 1  4  3  4 0 0)
     nstep                     =           50


     celldm(1)=   7.212489  celldm(2)=   0.000000  celldm(3)=   0.000000
     celldm(4)=   0.000000  celldm(5)=   0.000000  celldm(6)=   0.000000

     crystal axes: (cart. coord. in units of alat)
               a(1) = (  -0.707107   0.000000   0.707107 )  
               a(2) = (   0.000000   0.707107   0.707107 )  
               a(3) = (  -0.707107   0.707107   0.000000 )  

     reciprocal axes: (cart. coord. in units 2 pi/alat)
               b(1) = ( -0.707107 -0.707107  0.707107 )  
               b(2) = (  0.707107  0.707107  0.707107 )  
               b(3) = ( -0.707107  0.707107 -0.707107 )  


     PseudoPot. # 1 for Si read from file:
     .\Si.pbe-n-kjpaw_psl.1.0.0.UPF
     MD5 check sum: c39c59da582df4a0d9f10159256ea34e
     Pseudo is Projector augmented-wave + core cor, Zval =  4.0
     Generated using "atomic" code by A. Dal Corso v.6.3
     Shape of augmentation charge: PSQ
     Using radial grid of 1141 points,  6 beta functions with: 
                l(1) =   0
                l(2) =   0
                l(3) =   1
                l(4) =   1
                l(5) =   2
                l(6) =   2
     Q(r) pseudized with 0 coefficients 


     atomic species   valence    mass     pseudopotential
        Si             4.00    28.08600     Si( 1.00)

     No symmetry found


                                    s                        frac. trans.

      isym =  1     identity                                     

 cryst.   s( 1) = (     1          0          0      )
                  (     0          1          0      )
                  (     0          0          1      )

 cart.    s( 1) = (  1.0000000  0.0000000  0.0000000 )
                  (  0.0000000  1.0000000  0.0000000 )
                  (  0.0000000  0.0000000  1.0000000 )


   Cartesian axes

     site n.     atom                  positions (alat units)
         1           Si  tau(   1) = (   0.0000000   0.0000000   0.0000000  )
         2           Si  tau(   2) = (   0.3500179   0.3549676   0.3585031  )

   Crystallographic axes

     site n.     atom                  positions (cryst. coord.)
         1           Si  tau(   1) = (  0.0000000  0.0000000  0.0000000  )
         2           Si  tau(   2) = ( -0.2450000  0.7520000 -0.2500000  )

     number of k points=  1024
                       cart. coord. in units 2pi/alat
        k(    1) = (  -0.0441942   0.0441942   0.0441942), wk =   0.0019531
        k(    2) = (  -0.1325825   0.1325825  -0.0441942), wk =   0.0019531
        k(    3) = (  -0.2209709   0.2209709  -0.1325825), wk =   0.0019531
        k(    4) = (  -0.3093592   0.3093592  -0.2209709), wk =   0.0019531
        k(    5) = (   0.3093592  -0.3093592   0.3977476), wk =   0.0019531
        k(    6) = (   0.2209709  -0.2209709   0.3093592), wk =   0.0019531
        k(    7) = (   0.1325825  -0.1325825   0.2209709), wk =   0.0019531
        k(    8) = (   0.0441942  -0.0441942   0.1325825), wk =   0.0019531
        k(    9) = (  -0.0441942   0.2209709   0.0441942), wk =   0.0019531
        k(   10) = (  -0.1325825   0.3093592  -0.0441942), wk =   0.0019531
        k(   11) = (  -0.2209709   0.3977476  -0.1325825), wk =   0.0019531
        k(   12) = (   0.3977476  -0.2209709   0.4861359), wk =   0.0019531
        k(   13) = (   0.3093592  -0.1325825   0.3977476), wk =   0.0019531
        k(   14) = (   0.2209709  -0.0441942   0.3093592), wk =   0.0019531
        k(   15) = (   0.1325825   0.0441942   0.2209709), wk =   0.0019531
        k(   16) = (  -0.0441942   0.3977476   0.0441942), wk =   0.0019531
        k(   17) = (  -0.1325825   0.4861359  -0.0441942), wk =   0.0019531
        k(   18) = (   0.4861359  -0.1325825   0.5745243), wk =   0.0019531
        k(   19) = (   0.3977476  -0.0441942   0.4861359), wk =   0.0019531
        k(   20) = (   0.3093592   0.0441942   0.3977476), wk =   0.0019531
        k(   21) = (   0.2209709   0.1325825   0.3093592), wk =   0.0019531
        k(   22) = (  -0.0441942   0.5745243   0.0441942), wk =   0.0019531
        k(   23) = (   0.5745243  -0.0441942   0.6629126), wk =   0.0019531
        k(   24) = (   0.4861359   0.0441942   0.5745243), wk =   0.0019531
        k(   25) = (   0.3977476   0.1325825   0.4861359), wk =   0.0019531
        k(   26) = (   0.3093592   0.2209709   0.3977476), wk =   0.0019531
        k(   27) = (  -0.0441942  -0.6629126   0.0441942), wk =   0.0019531
        k(   28) = (  -0.1325825  -0.5745243  -0.0441942), wk =   0.0019531
        k(   29) = (  -0.2209709  -0.4861359  -0.1325825), wk =   0.0019531
        k(   30) = (  -0.0441942  -0.4861359   0.0441942), wk =   0.0019531
        k(   31) = (  -0.1325825  -0.3977476  -0.0441942), wk =   0.0019531
        k(   32) = (  -0.0441942  -0.3093592   0.0441942), wk =   0.0019531
        k(   33) = (  -0.1325825   0.1325825   0.1325825), wk =   0.0019531
        k(   34) = (  -0.2209709   0.2209709   0.0441942), wk =   0.0019531
        k(   35) = (  -0.3093592   0.3093592  -0.0441942), wk =   0.0019531
        k(   36) = (   0.3093592  -0.3093592   0.5745243), wk =   0.0019531
        k(   37) = (   0.2209709  -0.2209709   0.4861359), wk =   0.0019531
        k(   38) = (   0.1325825  -0.1325825   0.3977476), wk =   0.0019531
        k(   39) = (  -0.1325825   0.3093592   0.1325825), wk =   0.0019531
        k(   40) = (  -0.2209709   0.3977476   0.0441942), wk =   0.0019531
        k(   41) = (   0.3977476  -0.2209709   0.6629126), wk =   0.0019531
        k(   42) = (   0.3093592  -0.1325825   0.5745243), wk =   0.0019531
        k(   43) = (   0.2209709  -0.0441942   0.4861359), wk =   0.0019531
        k(   44) = (  -0.1325825   0.4861359   0.1325825), wk =   0.0019531
        k(   45) = (   0.4861359  -0.1325825   0.7513010), wk =   0.0019531
        k(   46) = (   0.3977476  -0.0441942   0.6629126), wk =   0.0019531
        k(   47) = (   0.3093592   0.0441942   0.5745243), wk =   0.0019531
        k(   48) = (  -0.1325825  -0.7513010   0.1325825), wk =   0.0019531
        k(   49) = (  -0.2209709  -0.6629126   0.0441942), wk =   0.0019531
        k(   50) = (  -0.1325825  -0.5745243   0.1325825), wk =   0.0019531
        k(   51) = (  -0.2209709   0.2209709   0.2209709), wk =   0.0019531
        k(   52) = (  -0.3093592   0.3093592   0.1325825), wk =   0.0019531
        k(   53) = (   0.3093592  -0.3093592   0.7513010), wk =   0.0019531
        k(   54) = (   0.2209709  -0.2209709   0.6629126), wk =   0.0019531
        k(   55) = (  -0.2209709   0.3977476   0.2209709), wk =   0.0019531
        k(   56) = (   0.3977476  -0.2209709   0.8396893), wk =   0.0019531
        k(   57) = (   0.3093592  -0.1325825   0.7513010), wk =   0.0019531
        k(   58) = (  -0.2209709  -0.8396893   0.2209709), wk =   0.0019531
        k(   59) = (  -0.3093592   0.3093592   0.3093592), wk =   0.0019531
        k(   60) = (   0.3093592  -0.3093592   0.9280777), wk =   0.0019531
        k(   61) = (   0.0441942  -0.0441942   0.0441942), wk =   0.0019531
        k(   62) = (   0.0441942   0.0441942  -0.0441942), wk =   0.0019531
        k(   63) = (  -0.0441942  -0.0441942  -0.0441942), wk =   0.0019531
        k(   64) = (   0.1325825  -0.1325825  -0.0441942), wk =   0.0019531
        k(   65) = (   0.1325825   0.1325825   0.0441942), wk =   0.0019531
        k(   66) = (  -0.1325825  -0.1325825   0.0441942), wk =   0.0019531
        k(   67) = (  -0.0441942  -0.1325825  -0.1325825), wk =   0.0019531
        k(   68) = (   0.0441942  -0.1325825   0.1325825), wk =   0.0019531
        k(   69) = (  -0.0441942   0.1325825   0.1325825), wk =   0.0019531
        k(   70) = (   0.0441942   0.1325825  -0.1325825), wk =   0.0019531
        k(   71) = (   0.1325825  -0.0441942   0.1325825), wk =   0.0019531
        k(   72) = (   0.1325825   0.0441942  -0.1325825), wk =   0.0019531
        k(   73) = (  -0.1325825  -0.0441942  -0.1325825), wk =   0.0019531
        k(   74) = (  -0.1325825   0.0441942   0.1325825), wk =   0.0019531
        k(   75) = (   0.2209709  -0.2209709  -0.1325825), wk =   0.0019531
        k(   76) = (   0.2209709   0.2209709   0.1325825), wk =   0.0019531
        k(   77) = (  -0.2209709  -0.2209709   0.1325825), wk =   0.0019531
        k(   78) = (  -0.1325825  -0.2209709  -0.2209709), wk =   0.0019531
        k(   79) = (   0.1325825  -0.2209709   0.2209709), wk =   0.0019531
        k(   80) = (  -0.1325825   0.2209709   0.2209709), wk =   0.0019531
        k(   81) = (   0.1325825   0.2209709  -0.2209709), wk =   0.0019531
        k(   82) = (   0.2209709  -0.1325825   0.2209709), wk =   0.0019531
        k(   83) = (   0.2209709   0.1325825  -0.2209709), wk =   0.0019531
        k(   84) = (  -0.2209709  -0.1325825  -0.2209709), wk =   0.0019531
        k(   85) = (  -0.2209709   0.1325825   0.2209709), wk =   0.0019531
        k(   86) = (   0.3093592  -0.3093592  -0.2209709), wk =   0.0019531
        k(   87) = (   0.3093592   0.3093592   0.2209709), wk =   0.0019531
        k(   88) = (  -0.3093592  -0.3093592   0.2209709), wk =   0.0019531
        k(   89) = (  -0.2209709  -0.3093592  -0.3093592), wk =   0.0019531
        k(   90) = (   0.2209709  -0.3093592   0.3093592), wk =   0.0019531
        k(   91) = (  -0.2209709   0.3093592   0.3093592), wk =   0.0019531
        k(   92) = (   0.2209709   0.3093592  -0.3093592), wk =   0.0019531
        k(   93) = (   0.3093592  -0.2209709   0.3093592), wk =   0.0019531
        k(   94) = (   0.3093592   0.2209709  -0.3093592), wk =   0.0019531
        k(   95) = (  -0.3093592  -0.2209709  -0.3093592), wk =   0.0019531
        k(   96) = (  -0.3093592   0.2209709   0.3093592), wk =   0.0019531
        k(   97) = (  -0.3093592   0.3093592   0.3977476), wk =   0.0019531
        k(   98) = (  -0.3093592  -0.3093592  -0.3977476), wk =   0.0019531
        k(   99) = (   0.3093592   0.3093592  -0.3977476), wk =   0.0019531
        k(  100) = (   0.3977476   0.3093592   0.3093592), wk =   0.0019531
        k(  101) = (  -0.3977476   0.3093592  -0.3093592), wk =   0.0019531
        k(  102) = (   0.3977476  -0.3093592  -0.3093592), wk =   0.0019531
        k(  103) = (  -0.3977476  -0.3093592   0.3093592), wk =   0.0019531
        k(  104) = (  -0.3093592   0.3977476  -0.3093592), wk =   0.0019531
        k(  105) = (  -0.3093592  -0.3977476   0.3093592), wk =   0.0019531
        k(  106) = (   0.3093592   0.3977476   0.3093592), wk =   0.0019531
        k(  107) = (   0.3093592  -0.3977476  -0.3093592), wk =   0.0019531
        k(  108) = (  -0.2209709   0.2209709   0.3093592), wk =   0.0019531
        k(  109) = (  -0.2209709  -0.2209709  -0.3093592), wk =   0.0019531
        k(  110) = (   0.2209709   0.2209709  -0.3093592), wk =   0.0019531
        k(  111) = (   0.3093592   0.2209709   0.2209709), wk =   0.0019531
        k(  112) = (  -0.3093592   0.2209709  -0.2209709), wk =   0.0019531
        k(  113) = (   0.3093592  -0.2209709  -0.2209709), wk =   0.0019531
        k(  114) = (  -0.3093592  -0.2209709   0.2209709), wk =   0.0019531
        k(  115) = (  -0.2209709   0.3093592  -0.2209709), wk =   0.0019531
        k(  116) = (  -0.2209709  -0.3093592   0.2209709), wk =   0.0019531
        k(  117) = (   0.2209709   0.3093592   0.2209709), wk =   0.0019531
        k(  118) = (   0.2209709  -0.3093592  -0.2209709), wk =   0.0019531
        k(  119) = (  -0.1325825   0.1325825   0.2209709), wk =   0.0019531
        k(  120) = (  -0.1325825  -0.1325825  -0.2209709), wk =   0.0019531
        k(  121) = (   0.1325825   0.1325825  -0.2209709), wk =   0.0019531
        k(  122) = (   0.2209709   0.1325825   0.1325825), wk =   0.0019531
        k(  123) = (  -0.2209709   0.1325825  -0.1325825), wk =   0.0019531
        k(  124) = (   0.2209709  -0.1325825  -0.1325825), wk =   0.0019531
        k(  125) = (  -0.2209709  -0.1325825   0.1325825), wk =   0.0019531
        k(  126) = (  -0.1325825   0.2209709  -0.1325825), wk =   0.0019531
        k(  127) = (  -0.1325825  -0.2209709   0.1325825), wk =   0.0019531
        k(  128) = (   0.1325825   0.2209709   0.1325825), wk =   0.0019531
        k(  129) = (   0.1325825  -0.2209709  -0.1325825), wk =   0.0019531
        k(  130) = (  -0.0441942   0.0441942   0.1325825), wk =   0.0019531
        k(  131) = (  -0.0441942  -0.0441942  -0.1325825), wk =   0.0019531
        k(  132) = (   0.0441942   0.0441942  -0.1325825), wk =   0.0019531
        k(  133) = (   0.1325825   0.0441942   0.0441942), wk =   0.0019531
        k(  134) = (  -0.1325825   0.0441942  -0.0441942), wk =   0.0019531
        k(  135) = (   0.1325825  -0.0441942  -0.0441942), wk =   0.0019531
        k(  136) = (  -0.1325825  -0.0441942   0.0441942), wk =   0.0019531
        k(  137) = (  -0.0441942   0.1325825  -0.0441942), wk =   0.0019531
        k(  138) = (  -0.0441942  -0.1325825   0.0441942), wk =   0.0019531
        k(  139) = (   0.0441942   0.1325825   0.0441942), wk =   0.0019531
        k(  140) = (   0.0441942  -0.1325825  -0.0441942), wk =   0.0019531
        k(  141) = (   0.0441942  -0.2209709   0.0441942), wk =   0.0019531
        k(  142) = (   0.0441942   0.2209709  -0.0441942), wk =   0.0019531
        k(  143) = (  -0.0441942  -0.2209709  -0.0441942), wk =   0.0019531
        k(  144) = (   0.2209709  -0.0441942  -0.0441942), wk =   0.0019531
        k(  145) = (  -0.2209709   0.0441942  -0.0441942), wk =   0.0019531
        k(  146) = (   0.2209709   0.0441942   0.0441942), wk =   0.0019531
        k(  147) = (  -0.2209709  -0.0441942   0.0441942), wk =   0.0019531
        k(  148) = (   0.0441942   0.0441942   0.2209709), wk =   0.0019531
        k(  149) = (   0.0441942  -0.0441942  -0.2209709), wk =   0.0019531
        k(  150) = (  -0.0441942   0.0441942  -0.2209709), wk =   0.0019531
        k(  151) = (  -0.0441942  -0.0441942   0.2209709), wk =   0.0019531
        k(  152) = (   0.1325825  -0.3093592  -0.0441942), wk =   0.0019531
        k(  153) = (   0.1325825   0.3093592   0.0441942), wk =   0.0019531
        k(  154) = (  -0.1325825  -0.3093592   0.0441942), wk =   0.0019531
        k(  155) = (   0.3093592  -0.1325825   0.0441942), wk =   0.0019531
        k(  156) = (  -0.3093592   0.1325825   0.0441942), wk =   0.0019531
        k(  157) = (   0.3093592   0.1325825  -0.0441942), wk =   0.0019531
        k(  158) = (  -0.3093592  -0.1325825  -0.0441942), wk =   0.0019531
        k(  159) = (  -0.0441942  -0.3093592  -0.1325825), wk =   0.0019531
        k(  160) = (   0.0441942  -0.3093592   0.1325825), wk =   0.0019531
        k(  161) = (  -0.0441942   0.3093592   0.1325825), wk =   0.0019531
        k(  162) = (   0.0441942   0.3093592  -0.1325825), wk =   0.0019531
        k(  163) = (   0.1325825  -0.0441942   0.3093592), wk =   0.0019531
        k(  164) = (   0.1325825   0.0441942  -0.3093592), wk =   0.0019531
        k(  165) = (  -0.1325825  -0.0441942  -0.3093592), wk =   0.0019531
        k(  166) = (  -0.1325825   0.0441942   0.3093592), wk =   0.0019531
        k(  167) = (   0.3093592  -0.0441942  -0.1325825), wk =   0.0019531
        k(  168) = (  -0.3093592  -0.0441942   0.1325825), wk =   0.0019531
        k(  169) = (   0.3093592   0.0441942   0.1325825), wk =   0.0019531
        k(  170) = (  -0.3093592   0.0441942  -0.1325825), wk =   0.0019531
        k(  171) = (  -0.0441942  -0.1325825   0.3093592), wk =   0.0019531
        k(  172) = (  -0.0441942   0.1325825  -0.3093592), wk =   0.0019531
        k(  173) = (   0.0441942   0.1325825   0.3093592), wk =   0.0019531
        k(  174) = (   0.0441942  -0.1325825  -0.3093592), wk =   0.0019531
        k(  175) = (   0.2209709  -0.3977476  -0.1325825), wk =   0.0019531
        k(  176) = (   0.2209709   0.3977476   0.1325825), wk =   0.0019531
        k(  177) = (  -0.2209709  -0.3977476   0.1325825), wk =   0.0019531
        k(  178) = (   0.3977476  -0.2209709   0.1325825), wk =   0.0019531
        k(  179) = (  -0.3977476   0.2209709   0.1325825), wk =   0.0019531
        k(  180) = (   0.3977476   0.2209709  -0.1325825), wk =   0.0019531
        k(  181) = (  -0.3977476  -0.2209709  -0.1325825), wk =   0.0019531
        k(  182) = (  -0.1325825  -0.3977476  -0.2209709), wk =   0.0019531
        k(  183) = (   0.1325825  -0.3977476   0.2209709), wk =   0.0019531
        k(  184) = (  -0.1325825   0.3977476   0.2209709), wk =   0.0019531
        k(  185) = (   0.1325825   0.3977476  -0.2209709), wk =   0.0019531
        k(  186) = (   0.2209709  -0.1325825   0.3977476), wk =   0.0019531
        k(  187) = (   0.2209709   0.1325825  -0.3977476), wk =   0.0019531
        k(  188) = (  -0.2209709  -0.1325825  -0.3977476), wk =   0.0019531
        k(  189) = (  -0.2209709   0.1325825   0.3977476), wk =   0.0019531
        k(  190) = (   0.3977476  -0.1325825  -0.2209709), wk =   0.0019531
        k(  191) = (  -0.3977476  -0.1325825   0.2209709), wk =   0.0019531
        k(  192) = (   0.3977476   0.1325825   0.2209709), wk =   0.0019531
        k(  193) = (  -0.3977476   0.1325825  -0.2209709), wk =   0.0019531
        k(  194) = (  -0.1325825  -0.2209709   0.3977476), wk =   0.0019531
        k(  195) = (  -0.1325825   0.2209709  -0.3977476), wk =   0.0019531
        k(  196) = (   0.1325825   0.2209709   0.3977476), wk =   0.0019531
        k(  197) = (   0.1325825  -0.2209709  -0.3977476), wk =   0.0019531
        k(  198) = (  -0.3977476   0.2209709   0.4861359), wk =   0.0019531
        k(  199) = (  -0.3977476  -0.2209709  -0.4861359), wk =   0.0019531
        k(  200) = (   0.3977476   0.2209709  -0.4861359), wk =   0.0019531
        k(  201) = (  -0.2209709   0.3977476  -0.4861359), wk =   0.0019531
        k(  202) = (   0.2209709  -0.3977476  -0.4861359), wk =   0.0019531
        k(  203) = (  -0.2209709  -0.3977476   0.4861359), wk =   0.0019531
        k(  204) = (   0.2209709   0.3977476   0.4861359), wk =   0.0019531
        k(  205) = (   0.4861359   0.2209709   0.3977476), wk =   0.0019531
        k(  206) = (  -0.4861359   0.2209709  -0.3977476), wk =   0.0019531
        k(  207) = (   0.4861359  -0.2209709  -0.3977476), wk =   0.0019531
        k(  208) = (  -0.4861359  -0.2209709   0.3977476), wk =   0.0019531
        k(  209) = (  -0.3977476   0.4861359  -0.2209709), wk =   0.0019531
        k(  210) = (  -0.3977476  -0.4861359   0.2209709), wk =   0.0019531
        k(  211) = (   0.3977476   0.4861359   0.2209709), wk =   0.0019531
        k(  212) = (   0.3977476  -0.4861359  -0.2209709), wk =   0.0019531
        k(  213) = (  -0.2209709   0.4861359   0.3977476), wk =   0.0019531
        k(  214) = (   0.2209709   0.4861359  -0.3977476), wk =   0.0019531
        k(  215) = (  -0.2209709  -0.4861359  -0.3977476), wk =   0.0019531
        k(  216) = (   0.2209709  -0.4861359   0.3977476), wk =   0.0019531
        k(  217) = (   0.4861359   0.3977476  -0.2209709), wk =   0.0019531
        k(  218) = (   0.4861359  -0.3977476   0.2209709), wk =   0.0019531
        k(  219) = (  -0.4861359  -0.3977476  -0.2209709), wk =   0.0019531
        k(  220) = (  -0.4861359   0.3977476   0.2209709), wk =   0.0019531
        k(  221) = (  -0.3093592   0.1325825   0.3977476), wk =   0.0019531
        k(  222) = (  -0.3093592  -0.1325825  -0.3977476), wk =   0.0019531
        k(  223) = (   0.3093592   0.1325825  -0.3977476), wk =   0.0019531
        k(  224) = (  -0.1325825   0.3093592  -0.3977476), wk =   0.0019531
        k(  225) = (   0.1325825  -0.3093592  -0.3977476), wk =   0.0019531
        k(  226) = (  -0.1325825  -0.3093592   0.3977476), wk =   0.0019531
        k(  227) = (   0.1325825   0.3093592   0.3977476), wk =   0.0019531
        k(  228) = (   0.3977476   0.1325825   0.3093592), wk =   0.0019531
        k(  229) = (  -0.3977476   0.1325825  -0.3093592), wk =   0.0019531
        k(  230) = (   0.3977476  -0.1325825  -0.3093592), wk =   0.0019531
        k(  231) = (  -0.3977476  -0.1325825   0.3093592), wk =   0.0019531
        k(  232) = (  -0.3093592   0.3977476  -0.1325825), wk =   0.0019531
        k(  233) = (  -0.3093592  -0.3977476   0.1325825), wk =   0.0019531
        k(  234) = (   0.3093592   0.3977476   0.1325825), wk =   0.0019531
        k(  235) = (   0.3093592  -0.3977476  -0.1325825), wk =   0.0019531
        k(  236) = (  -0.1325825   0.3977476   0.3093592), wk =   0.0019531
        k(  237) = (   0.1325825   0.3977476  -0.3093592), wk =   0.0019531
        k(  238) = (  -0.1325825  -0.3977476  -0.3093592), wk =   0.0019531
        k(  239) = (   0.1325825  -0.3977476   0.3093592), wk =   0.0019531
        k(  240) = (   0.3977476   0.3093592  -0.1325825), wk =   0.0019531
        k(  241) = (   0.3977476  -0.3093592   0.1325825), wk =   0.0019531
        k(  242) = (  -0.3977476  -0.3093592  -0.1325825), wk =   0.0019531
        k(  243) = (  -0.3977476   0.3093592   0.1325825), wk =   0.0019531
        k(  244) = (  -0.2209709   0.0441942   0.3093592), wk =   0.0019531
        k(  245) = (  -0.2209709  -0.0441942  -0.3093592), wk =   0.0019531
        k(  246) = (   0.2209709   0.0441942  -0.3093592), wk =   0.0019531
        k(  247) = (  -0.0441942   0.2209709  -0.3093592), wk =   0.0019531
        k(  248) = (   0.0441942  -0.2209709  -0.3093592), wk =   0.0019531
        k(  249) = (  -0.0441942  -0.2209709   0.3093592), wk =   0.0019531
        k(  250) = (   0.0441942   0.2209709   0.3093592), wk =   0.0019531
        k(  251) = (   0.3093592   0.0441942   0.2209709), wk =   0.0019531
        k(  252) = (  -0.3093592   0.0441942  -0.2209709), wk =   0.0019531
        k(  253) = (   0.3093592  -0.0441942  -0.2209709), wk =   0.0019531
        k(  254) = (  -0.3093592  -0.0441942   0.2209709), wk =   0.0019531
        k(  255) = (  -0.2209709   0.3093592  -0.0441942), wk =   0.0019531
        k(  256) = (  -0.2209709  -0.3093592   0.0441942), wk =   0.0019531
        k(  257) = (   0.2209709   0.3093592   0.0441942), wk =   0.0019531
        k(  258) = (   0.2209709  -0.3093592  -0.0441942), wk =   0.0019531
        k(  259) = (  -0.0441942   0.3093592   0.2209709), wk =   0.0019531
        k(  260) = (   0.0441942   0.3093592  -0.2209709), wk =   0.0019531
        k(  261) = (  -0.0441942  -0.3093592  -0.2209709), wk =   0.0019531
        k(  262) = (   0.0441942  -0.3093592   0.2209709), wk =   0.0019531
        k(  263) = (   0.3093592   0.2209709  -0.0441942), wk =   0.0019531
        k(  264) = (   0.3093592  -0.2209709   0.0441942), wk =   0.0019531
        k(  265) = (  -0.3093592  -0.2209709  -0.0441942), wk =   0.0019531
        k(  266) = (  -0.3093592   0.2209709   0.0441942), wk =   0.0019531
        k(  267) = (  -0.1325825  -0.0441942   0.2209709), wk =   0.0019531
        k(  268) = (  -0.1325825   0.0441942  -0.2209709), wk =   0.0019531
        k(  269) = (   0.1325825  -0.0441942  -0.2209709), wk =   0.0019531
        k(  270) = (   0.0441942   0.1325825  -0.2209709), wk =   0.0019531
        k(  271) = (  -0.0441942  -0.1325825  -0.2209709), wk =   0.0019531
        k(  272) = (   0.0441942  -0.1325825   0.2209709), wk =   0.0019531
        k(  273) = (  -0.0441942   0.1325825   0.2209709), wk =   0.0019531
        k(  274) = (   0.2209709  -0.0441942   0.1325825), wk =   0.0019531
        k(  275) = (  -0.2209709  -0.0441942  -0.1325825), wk =   0.0019531
        k(  276) = (   0.2209709   0.0441942  -0.1325825), wk =   0.0019531
        k(  277) = (  -0.2209709   0.0441942   0.1325825), wk =   0.0019531
        k(  278) = (  -0.1325825   0.2209709   0.0441942), wk =   0.0019531
        k(  279) = (  -0.1325825  -0.2209709  -0.0441942), wk =   0.0019531
        k(  280) = (   0.1325825   0.2209709  -0.0441942), wk =   0.0019531
        k(  281) = (   0.1325825  -0.2209709   0.0441942), wk =   0.0019531
        k(  282) = (   0.0441942   0.2209709   0.1325825), wk =   0.0019531
        k(  283) = (  -0.0441942   0.2209709  -0.1325825), wk =   0.0019531
        k(  284) = (   0.0441942  -0.2209709  -0.1325825), wk =   0.0019531
        k(  285) = (  -0.0441942  -0.2209709   0.1325825), wk =   0.0019531
        k(  286) = (   0.2209709   0.1325825   0.0441942), wk =   0.0019531
        k(  287) = (   0.2209709  -0.1325825  -0.0441942), wk =   0.0019531
        k(  288) = (  -0.2209709  -0.1325825   0.0441942), wk =   0.0019531
        k(  289) = (  -0.2209709   0.1325825  -0.0441942), wk =   0.0019531
        k(  290) = (   0.0441942  -0.3977476   0.0441942), wk =   0.0019531
        k(  291) = (   0.0441942   0.3977476  -0.0441942), wk =   0.0019531
        k(  292) = (  -0.0441942  -0.3977476  -0.0441942), wk =   0.0019531
        k(  293) = (   0.3977476  -0.0441942  -0.0441942), wk =   0.0019531
        k(  294) = (  -0.3977476   0.0441942  -0.0441942), wk =   0.0019531
        k(  295) = (   0.3977476   0.0441942   0.0441942), wk =   0.0019531
        k(  296) = (  -0.3977476  -0.0441942   0.0441942), wk =   0.0019531
        k(  297) = (   0.0441942   0.0441942   0.3977476), wk =   0.0019531
        k(  298) = (   0.0441942  -0.0441942  -0.3977476), wk =   0.0019531
        k(  299) = (  -0.0441942   0.0441942  -0.3977476), wk =   0.0019531
        k(  300) = (  -0.0441942  -0.0441942   0.3977476), wk =   0.0019531
        k(  301) = (   0.1325825  -0.4861359  -0.0441942), wk =   0.0019531
        k(  302) = (   0.1325825   0.4861359   0.0441942), wk =   0.0019531
        k(  303) = (  -0.1325825  -0.4861359   0.0441942), wk =   0.0019531
        k(  304) = (   0.4861359  -0.1325825   0.0441942), wk =   0.0019531
        k(  305) = (  -0.4861359   0.1325825   0.0441942), wk =   0.0019531
        k(  306) = (   0.4861359   0.1325825  -0.0441942), wk =   0.0019531
        k(  307) = (  -0.4861359  -0.1325825  -0.0441942), wk =   0.0019531
        k(  308) = (  -0.0441942  -0.4861359  -0.1325825), wk =   0.0019531
        k(  309) = (   0.0441942  -0.4861359   0.1325825), wk =   0.0019531
        k(  310) = (  -0.0441942   0.4861359   0.1325825), wk =   0.0019531
        k(  311) = (   0.0441942   0.4861359  -0.1325825), wk =   0.0019531
        k(  312) = (   0.1325825  -0.0441942   0.4861359), wk =   0.0019531
        k(  313) = (   0.1325825   0.0441942  -0.4861359), wk =   0.0019531
        k(  314) = (  -0.1325825  -0.0441942  -0.4861359), wk =   0.0019531
        k(  315) = (  -0.1325825   0.0441942   0.4861359), wk =   0.0019531
        k(  316) = (   0.4861359  -0.0441942  -0.1325825), wk =   0.0019531
        k(  317) = (  -0.4861359  -0.0441942   0.1325825), wk =   0.0019531
        k(  318) = (   0.4861359   0.0441942   0.1325825), wk =   0.0019531
        k(  319) = (  -0.4861359   0.0441942  -0.1325825), wk =   0.0019531
        k(  320) = (  -0.0441942  -0.1325825   0.4861359), wk =   0.0019531
        k(  321) = (  -0.0441942   0.1325825  -0.4861359), wk =   0.0019531
        k(  322) = (   0.0441942   0.1325825   0.4861359), wk =   0.0019531
        k(  323) = (   0.0441942  -0.1325825  -0.4861359), wk =   0.0019531
        k(  324) = (  -0.4861359   0.1325825   0.5745243), wk =   0.0019531
        k(  325) = (  -0.4861359  -0.1325825  -0.5745243), wk =   0.0019531
        k(  326) = (   0.4861359   0.1325825  -0.5745243), wk =   0.0019531
        k(  327) = (  -0.1325825   0.4861359  -0.5745243), wk =   0.0019531
        k(  328) = (   0.1325825  -0.4861359  -0.5745243), wk =   0.0019531
        k(  329) = (  -0.1325825  -0.4861359   0.5745243), wk =   0.0019531
        k(  330) = (   0.1325825   0.4861359   0.5745243), wk =   0.0019531
        k(  331) = (   0.5745243   0.1325825   0.4861359), wk =   0.0019531
        k(  332) = (  -0.5745243   0.1325825  -0.4861359), wk =   0.0019531
        k(  333) = (   0.5745243  -0.1325825  -0.4861359), wk =   0.0019531
        k(  334) = (  -0.5745243  -0.1325825   0.4861359), wk =   0.0019531
        k(  335) = (  -0.4861359   0.5745243  -0.1325825), wk =   0.0019531
        k(  336) = (  -0.4861359  -0.5745243   0.1325825), wk =   0.0019531
        k(  337) = (   0.4861359   0.5745243   0.1325825), wk =   0.0019531
        k(  338) = (   0.4861359  -0.5745243  -0.1325825), wk =   0.0019531
        k(  339) = (  -0.1325825   0.5745243   0.4861359), wk =   0.0019531
        k(  340) = (   0.1325825   0.5745243  -0.4861359), wk =   0.0019531
        k(  341) = (  -0.1325825  -0.5745243  -0.4861359), wk =   0.0019531
        k(  342) = (   0.1325825  -0.5745243   0.4861359), wk =   0.0019531
        k(  343) = (   0.5745243   0.4861359  -0.1325825), wk =   0.0019531
        k(  344) = (   0.5745243  -0.4861359   0.1325825), wk =   0.0019531
        k(  345) = (  -0.5745243  -0.4861359  -0.1325825), wk =   0.0019531
        k(  346) = (  -0.5745243   0.4861359   0.1325825), wk =   0.0019531
        k(  347) = (  -0.3977476   0.0441942   0.4861359), wk =   0.0019531
        k(  348) = (  -0.3977476  -0.0441942  -0.4861359), wk =   0.0019531
        k(  349) = (   0.3977476   0.0441942  -0.4861359), wk =   0.0019531
        k(  350) = (  -0.0441942   0.3977476  -0.4861359), wk =   0.0019531
        k(  351) = (   0.0441942  -0.3977476  -0.4861359), wk =   0.0019531
        k(  352) = (  -0.0441942  -0.3977476   0.4861359), wk =   0.0019531
        k(  353) = (   0.0441942   0.3977476   0.4861359), wk =   0.0019531
        k(  354) = (   0.4861359   0.0441942   0.3977476), wk =   0.0019531
        k(  355) = (  -0.4861359   0.0441942  -0.3977476), wk =   0.0019531
        k(  356) = (   0.4861359  -0.0441942  -0.3977476), wk =   0.0019531
        k(  357) = (  -0.4861359  -0.0441942   0.3977476), wk =   0.0019531
        k(  358) = (  -0.3977476   0.4861359  -0.0441942), wk =   0.0019531
        k(  359) = (  -0.3977476  -0.4861359   0.0441942), wk =   0.0019531
        k(  360) = (   0.3977476   0.4861359   0.0441942), wk =   0.0019531
        k(  361) = (   0.3977476  -0.4861359  -0.0441942), wk =   0.0019531
        k(  362) = (  -0.0441942   0.4861359   0.3977476), wk =   0.0019531
        k(  363) = (   0.0441942   0.4861359  -0.3977476), wk =   0.0019531
        k(  364) = (  -0.0441942  -0.4861359  -0.3977476), wk =   0.0019531
        k(  365) = (   0.0441942  -0.4861359   0.3977476), wk =   0.0019531
        k(  366) = (   0.4861359   0.3977476  -0.0441942), wk =   0.0019531
        k(  367) = (   0.4861359  -0.3977476   0.0441942), wk =   0.0019531
        k(  368) = (  -0.4861359  -0.3977476  -0.0441942), wk =   0.0019531
        k(  369) = (  -0.4861359   0.3977476   0.0441942), wk =   0.0019531
        k(  370) = (  -0.3093592  -0.0441942   0.3977476), wk =   0.0019531
        k(  371) = (  -0.3093592   0.0441942  -0.3977476), wk =   0.0019531
        k(  372) = (   0.3093592  -0.0441942  -0.3977476), wk =   0.0019531
        k(  373) = (   0.0441942   0.3093592  -0.3977476), wk =   0.0019531
        k(  374) = (  -0.0441942  -0.3093592  -0.3977476), wk =   0.0019531
        k(  375) = (   0.0441942  -0.3093592   0.3977476), wk =   0.0019531
        k(  376) = (  -0.0441942   0.3093592   0.3977476), wk =   0.0019531
        k(  377) = (   0.3977476  -0.0441942   0.3093592), wk =   0.0019531
        k(  378) = (  -0.3977476  -0.0441942  -0.3093592), wk =   0.0019531
        k(  379) = (   0.3977476   0.0441942  -0.3093592), wk =   0.0019531
        k(  380) = (  -0.3977476   0.0441942   0.3093592), wk =   0.0019531
        k(  381) = (  -0.3093592   0.3977476   0.0441942), wk =   0.0019531
        k(  382) = (  -0.3093592  -0.3977476  -0.0441942), wk =   0.0019531
        k(  383) = (   0.3093592   0.3977476  -0.0441942), wk =   0.0019531
        k(  384) = (   0.3093592  -0.3977476   0.0441942), wk =   0.0019531
        k(  385) = (   0.0441942   0.3977476   0.3093592), wk =   0.0019531
        k(  386) = (  -0.0441942   0.3977476  -0.3093592), wk =   0.0019531
        k(  387) = (   0.0441942  -0.3977476  -0.3093592), wk =   0.0019531
        k(  388) = (  -0.0441942  -0.3977476   0.3093592), wk =   0.0019531
        k(  389) = (   0.3977476   0.3093592   0.0441942), wk =   0.0019531
        k(  390) = (   0.3977476  -0.3093592  -0.0441942), wk =   0.0019531
        k(  391) = (  -0.3977476  -0.3093592   0.0441942), wk =   0.0019531
        k(  392) = (  -0.3977476   0.3093592  -0.0441942), wk =   0.0019531
        k(  393) = (  -0.2209709  -0.1325825   0.3093592), wk =   0.0019531
        k(  394) = (  -0.2209709   0.1325825  -0.3093592), wk =   0.0019531
        k(  395) = (   0.2209709  -0.1325825  -0.3093592), wk =   0.0019531
        k(  396) = (   0.1325825   0.2209709  -0.3093592), wk =   0.0019531
        k(  397) = (  -0.1325825  -0.2209709  -0.3093592), wk =   0.0019531
        k(  398) = (   0.1325825  -0.2209709   0.3093592), wk =   0.0019531
        k(  399) = (  -0.1325825   0.2209709   0.3093592), wk =   0.0019531
        k(  400) = (   0.3093592  -0.1325825   0.2209709), wk =   0.0019531
        k(  401) = (  -0.3093592  -0.1325825  -0.2209709), wk =   0.0019531
        k(  402) = (   0.3093592   0.1325825  -0.2209709), wk =   0.0019531
        k(  403) = (  -0.3093592   0.1325825   0.2209709), wk =   0.0019531
        k(  404) = (  -0.2209709   0.3093592   0.1325825), wk =   0.0019531
        k(  405) = (  -0.2209709  -0.3093592  -0.1325825), wk =   0.0019531
        k(  406) = (   0.2209709   0.3093592  -0.1325825), wk =   0.0019531
        k(  407) = (   0.2209709  -0.3093592   0.1325825), wk =   0.0019531
        k(  408) = (   0.1325825   0.3093592   0.2209709), wk =   0.0019531
        k(  409) = (  -0.1325825   0.3093592  -0.2209709), wk =   0.0019531
        k(  410) = (   0.1325825  -0.3093592  -0.2209709), wk =   0.0019531
        k(  411) = (  -0.1325825  -0.3093592   0.2209709), wk =   0.0019531
        k(  412) = (   0.3093592   0.2209709   0.1325825), wk =   0.0019531
        k(  413) = (   0.3093592  -0.2209709  -0.1325825), wk =   0.0019531
        k(  414) = (  -0.3093592  -0.2209709   0.1325825), wk =   0.0019531
        k(  415) = (  -0.3093592   0.2209709  -0.1325825), wk =   0.0019531
        k(  416) = (   0.0441942  -0.5745243   0.0441942), wk =   0.0019531
        k(  417) = (   0.0441942   0.5745243  -0.0441942), wk =   0.0019531
        k(  418) = (  -0.0441942  -0.5745243  -0.0441942), wk =   0.0019531
        k(  419) = (   0.5745243  -0.0441942  -0.0441942), wk =   0.0019531
        k(  420) = (  -0.5745243   0.0441942  -0.0441942), wk =   0.0019531
        k(  421) = (   0.5745243   0.0441942   0.0441942), wk =   0.0019531
        k(  422) = (  -0.5745243  -0.0441942   0.0441942), wk =   0.0019531
        k(  423) = (   0.0441942   0.0441942   0.5745243), wk =   0.0019531
        k(  424) = (   0.0441942  -0.0441942  -0.5745243), wk =   0.0019531
        k(  425) = (  -0.0441942   0.0441942  -0.5745243), wk =   0.0019531
        k(  426) = (  -0.0441942  -0.0441942   0.5745243), wk =   0.0019531
        k(  427) = (  -0.5745243   0.0441942   0.6629126), wk =   0.0019531
        k(  428) = (  -0.5745243  -0.0441942  -0.6629126), wk =   0.0019531
        k(  429) = (   0.5745243   0.0441942  -0.6629126), wk =   0.0019531
        k(  430) = (  -0.0441942   0.5745243  -0.6629126), wk =   0.0019531
        k(  431) = (   0.0441942  -0.5745243  -0.6629126), wk =   0.0019531
        k(  432) = (  -0.0441942  -0.5745243   0.6629126), wk =   0.0019531
        k(  433) = (   0.0441942   0.5745243   0.6629126), wk =   0.0019531
        k(  434) = (   0.6629126   0.0441942   0.5745243), wk =   0.0019531
        k(  435) = (  -0.6629126   0.0441942  -0.5745243), wk =   0.0019531
        k(  436) = (   0.6629126  -0.0441942  -0.5745243), wk =   0.0019531
        k(  437) = (  -0.6629126  -0.0441942   0.5745243), wk =   0.0019531
        k(  438) = (  -0.5745243   0.6629126  -0.0441942), wk =   0.0019531
        k(  439) = (  -0.5745243  -0.6629126   0.0441942), wk =   0.0019531
        k(  440) = (   0.5745243   0.6629126   0.0441942), wk =   0.0019531
        k(  441) = (   0.5745243  -0.6629126  -0.0441942), wk =   0.0019531
        k(  442) = (  -0.0441942   0.6629126   0.5745243), wk =   0.0019531
        k(  443) = (   0.0441942   0.6629126  -0.5745243), wk =   0.0019531
        k(  444) = (  -0.0441942  -0.6629126  -0.5745243), wk =   0.0019531
        k(  445) = (   0.0441942  -0.6629126   0.5745243), wk =   0.0019531
        k(  446) = (   0.6629126   0.5745243  -0.0441942), wk =   0.0019531
        k(  447) = (   0.6629126  -0.5745243   0.0441942), wk =   0.0019531
        k(  448) = (  -0.6629126  -0.5745243  -0.0441942), wk =   0.0019531
        k(  449) = (  -0.6629126   0.5745243   0.0441942), wk =   0.0019531
        k(  450) = (  -0.4861359  -0.0441942   0.5745243), wk =   0.0019531
        k(  451) = (  -0.4861359   0.0441942  -0.5745243), wk =   0.0019531
        k(  452) = (   0.4861359  -0.0441942  -0.5745243), wk =   0.0019531
        k(  453) = (   0.0441942   0.4861359  -0.5745243), wk =   0.0019531
        k(  454) = (  -0.0441942  -0.4861359  -0.5745243), wk =   0.0019531
        k(  455) = (   0.0441942  -0.4861359   0.5745243), wk =   0.0019531
        k(  456) = (  -0.0441942   0.4861359   0.5745243), wk =   0.0019531
        k(  457) = (   0.5745243  -0.0441942   0.4861359), wk =   0.0019531
        k(  458) = (  -0.5745243  -0.0441942  -0.4861359), wk =   0.0019531
        k(  459) = (   0.5745243   0.0441942  -0.4861359), wk =   0.0019531
        k(  460) = (  -0.5745243   0.0441942   0.4861359), wk =   0.0019531
        k(  461) = (  -0.4861359   0.5745243   0.0441942), wk =   0.0019531
        k(  462) = (  -0.4861359  -0.5745243  -0.0441942), wk =   0.0019531
        k(  463) = (   0.4861359   0.5745243  -0.0441942), wk =   0.0019531
        k(  464) = (   0.4861359  -0.5745243   0.0441942), wk =   0.0019531
        k(  465) = (   0.0441942   0.5745243   0.4861359), wk =   0.0019531
        k(  466) = (  -0.0441942   0.5745243  -0.4861359), wk =   0.0019531
        k(  467) = (   0.0441942  -0.5745243  -0.4861359), wk =   0.0019531
        k(  468) = (  -0.0441942  -0.5745243   0.4861359), wk =   0.0019531
        k(  469) = (   0.5745243   0.4861359   0.0441942), wk =   0.0019531
        k(  470) = (   0.5745243  -0.4861359  -0.0441942), wk =   0.0019531
        k(  471) = (  -0.5745243  -0.4861359   0.0441942), wk =   0.0019531
        k(  472) = (  -0.5745243   0.4861359  -0.0441942), wk =   0.0019531
        k(  473) = (  -0.3977476  -0.1325825   0.4861359), wk =   0.0019531
        k(  474) = (  -0.3977476   0.1325825  -0.4861359), wk =   0.0019531
        k(  475) = (   0.3977476  -0.1325825  -0.4861359), wk =   0.0019531
        k(  476) = (   0.1325825   0.3977476  -0.4861359), wk =   0.0019531
        k(  477) = (  -0.1325825  -0.3977476  -0.4861359), wk =   0.0019531
        k(  478) = (   0.1325825  -0.3977476   0.4861359), wk =   0.0019531
        k(  479) = (  -0.1325825   0.3977476   0.4861359), wk =   0.0019531
        k(  480) = (   0.4861359  -0.1325825   0.3977476), wk =   0.0019531
        k(  481) = (  -0.4861359  -0.1325825  -0.3977476), wk =   0.0019531
        k(  482) = (   0.4861359   0.1325825  -0.3977476), wk =   0.0019531
        k(  483) = (  -0.4861359   0.1325825   0.3977476), wk =   0.0019531
        k(  484) = (  -0.3977476   0.4861359   0.1325825), wk =   0.0019531
        k(  485) = (  -0.3977476  -0.4861359  -0.1325825), wk =   0.0019531
        k(  486) = (   0.3977476   0.4861359  -0.1325825), wk =   0.0019531
        k(  487) = (   0.3977476  -0.4861359   0.1325825), wk =   0.0019531
        k(  488) = (   0.1325825   0.4861359   0.3977476), wk =   0.0019531
        k(  489) = (  -0.1325825   0.4861359  -0.3977476), wk =   0.0019531
        k(  490) = (   0.1325825  -0.4861359  -0.3977476), wk =   0.0019531
        k(  491) = (  -0.1325825  -0.4861359   0.3977476), wk =   0.0019531
        k(  492) = (   0.4861359   0.3977476   0.1325825), wk =   0.0019531
        k(  493) = (   0.4861359  -0.3977476  -0.1325825), wk =   0.0019531
        k(  494) = (  -0.4861359  -0.3977476   0.1325825), wk =   0.0019531
        k(  495) = (  -0.4861359   0.3977476  -0.1325825), wk =   0.0019531
        k(  496) = (  -0.3093592  -0.2209709   0.3977476), wk =   0.0019531
        k(  497) = (  -0.3093592   0.2209709  -0.3977476), wk =   0.0019531
        k(  498) = (   0.3093592  -0.2209709  -0.3977476), wk =   0.0019531
        k(  499) = (   0.2209709   0.3093592  -0.3977476), wk =   0.0019531
        k(  500) = (  -0.2209709  -0.3093592  -0.3977476), wk =   0.0019531
        k(  501) = (   0.2209709  -0.3093592   0.3977476), wk =   0.0019531
        k(  502) = (  -0.2209709   0.3093592   0.3977476), wk =   0.0019531
        k(  503) = (   0.3977476  -0.2209709   0.3093592), wk =   0.0019531
        k(  504) = (  -0.3977476  -0.2209709  -0.3093592), wk =   0.0019531
        k(  505) = (   0.3977476   0.2209709  -0.3093592), wk =   0.0019531
        k(  506) = (  -0.3977476   0.2209709   0.3093592), wk =   0.0019531
        k(  507) = (  -0.3093592   0.3977476   0.2209709), wk =   0.0019531
        k(  508) = (  -0.3093592  -0.3977476  -0.2209709), wk =   0.0019531
        k(  509) = (   0.3093592   0.3977476  -0.2209709), wk =   0.0019531
        k(  510) = (   0.3093592  -0.3977476   0.2209709), wk =   0.0019531
        k(  511) = (   0.2209709   0.3977476   0.3093592), wk =   0.0019531
        k(  512) = (  -0.2209709   0.3977476  -0.3093592), wk =   0.0019531
        k(  513) = (   0.2209709  -0.3977476  -0.3093592), wk =   0.0019531
        k(  514) = (  -0.2209709  -0.3977476   0.3093592), wk =   0.0019531
        k(  515) = (   0.3977476   0.3093592   0.2209709), wk =   0.0019531
        k(  516) = (   0.3977476  -0.3093592  -0.2209709), wk =   0.0019531
        k(  517) = (  -0.3977476  -0.3093592   0.2209709), wk =   0.0019531
        k(  518) = (  -0.3977476   0.3093592  -0.2209709), wk =   0.0019531
        k(  519) = (   0.0441942   0.6629126   0.0441942), wk =   0.0019531
        k(  520) = (   0.0441942  -0.6629126  -0.0441942), wk =   0.0019531
        k(  521) = (  -0.0441942   0.6629126  -0.0441942), wk =   0.0019531
        k(  522) = (  -0.6629126  -0.0441942  -0.0441942), wk =   0.0019531
        k(  523) = (   0.6629126   0.0441942  -0.0441942), wk =   0.0019531
        k(  524) = (  -0.6629126   0.0441942   0.0441942), wk =   0.0019531
        k(  525) = (   0.6629126  -0.0441942   0.0441942), wk =   0.0019531
        k(  526) = (   0.0441942   0.0441942  -0.6629126), wk =   0.0019531
        k(  527) = (   0.0441942  -0.0441942   0.6629126), wk =   0.0019531
        k(  528) = (  -0.0441942   0.0441942   0.6629126), wk =   0.0019531
        k(  529) = (  -0.0441942  -0.0441942  -0.6629126), wk =   0.0019531
        k(  530) = (   0.1325825   0.5745243  -0.0441942), wk =   0.0019531
        k(  531) = (   0.1325825  -0.5745243   0.0441942), wk =   0.0019531
        k(  532) = (  -0.1325825   0.5745243   0.0441942), wk =   0.0019531
        k(  533) = (  -0.5745243  -0.1325825   0.0441942), wk =   0.0019531
        k(  534) = (   0.5745243   0.1325825   0.0441942), wk =   0.0019531
        k(  535) = (  -0.5745243   0.1325825  -0.0441942), wk =   0.0019531
        k(  536) = (   0.5745243  -0.1325825  -0.0441942), wk =   0.0019531
        k(  537) = (  -0.0441942   0.5745243  -0.1325825), wk =   0.0019531
        k(  538) = (   0.0441942   0.5745243   0.1325825), wk =   0.0019531
        k(  539) = (  -0.0441942  -0.5745243   0.1325825), wk =   0.0019531
        k(  540) = (   0.0441942  -0.5745243  -0.1325825), wk =   0.0019531
        k(  541) = (   0.1325825  -0.0441942  -0.5745243), wk =   0.0019531
        k(  542) = (   0.1325825   0.0441942   0.5745243), wk =   0.0019531
        k(  543) = (  -0.1325825  -0.0441942   0.5745243), wk =   0.0019531
        k(  544) = (  -0.1325825   0.0441942  -0.5745243), wk =   0.0019531
        k(  545) = (  -0.5745243  -0.0441942  -0.1325825), wk =   0.0019531
        k(  546) = (   0.5745243  -0.0441942   0.1325825), wk =   0.0019531
        k(  547) = (  -0.5745243   0.0441942   0.1325825), wk =   0.0019531
        k(  548) = (   0.5745243   0.0441942  -0.1325825), wk =   0.0019531
        k(  549) = (  -0.0441942  -0.1325825  -0.5745243), wk =   0.0019531
        k(  550) = (  -0.0441942   0.1325825   0.5745243), wk =   0.0019531
        k(  551) = (   0.0441942   0.1325825  -0.5745243), wk =   0.0019531
        k(  552) = (   0.0441942  -0.1325825   0.5745243), wk =   0.0019531
        k(  553) = (   0.2209709   0.4861359  -0.1325825), wk =   0.0019531
        k(  554) = (   0.2209709  -0.4861359   0.1325825), wk =   0.0019531
        k(  555) = (  -0.2209709   0.4861359   0.1325825), wk =   0.0019531
        k(  556) = (  -0.4861359  -0.2209709   0.1325825), wk =   0.0019531
        k(  557) = (   0.4861359   0.2209709   0.1325825), wk =   0.0019531
        k(  558) = (  -0.4861359   0.2209709  -0.1325825), wk =   0.0019531
        k(  559) = (   0.4861359  -0.2209709  -0.1325825), wk =   0.0019531
        k(  560) = (  -0.1325825   0.4861359  -0.2209709), wk =   0.0019531
        k(  561) = (   0.1325825   0.4861359   0.2209709), wk =   0.0019531
        k(  562) = (  -0.1325825  -0.4861359   0.2209709), wk =   0.0019531
        k(  563) = (   0.1325825  -0.4861359  -0.2209709), wk =   0.0019531
        k(  564) = (   0.2209709  -0.1325825  -0.4861359), wk =   0.0019531
        k(  565) = (   0.2209709   0.1325825   0.4861359), wk =   0.0019531
        k(  566) = (  -0.2209709  -0.1325825   0.4861359), wk =   0.0019531
        k(  567) = (  -0.2209709   0.1325825  -0.4861359), wk =   0.0019531
        k(  568) = (  -0.4861359  -0.1325825  -0.2209709), wk =   0.0019531
        k(  569) = (   0.4861359  -0.1325825   0.2209709), wk =   0.0019531
        k(  570) = (  -0.4861359   0.1325825   0.2209709), wk =   0.0019531
        k(  571) = (   0.4861359   0.1325825  -0.2209709), wk =   0.0019531
        k(  572) = (  -0.1325825  -0.2209709  -0.4861359), wk =   0.0019531
        k(  573) = (  -0.1325825   0.2209709   0.4861359), wk =   0.0019531
        k(  574) = (   0.1325825   0.2209709  -0.4861359), wk =   0.0019531
        k(  575) = (   0.1325825  -0.2209709   0.4861359), wk =   0.0019531
        k(  576) = (   0.0441942   0.4861359   0.0441942), wk =   0.0019531
        k(  577) = (   0.0441942  -0.4861359  -0.0441942), wk =   0.0019531
        k(  578) = (  -0.0441942   0.4861359  -0.0441942), wk =   0.0019531
        k(  579) = (  -0.4861359  -0.0441942  -0.0441942), wk =   0.0019531
        k(  580) = (   0.4861359   0.0441942  -0.0441942), wk =   0.0019531
        k(  581) = (  -0.4861359   0.0441942   0.0441942), wk =   0.0019531
        k(  582) = (   0.4861359  -0.0441942   0.0441942), wk =   0.0019531
        k(  583) = (   0.0441942   0.0441942  -0.4861359), wk =   0.0019531
        k(  584) = (   0.0441942  -0.0441942   0.4861359), wk =   0.0019531
        k(  585) = (  -0.0441942   0.0441942   0.4861359), wk =   0.0019531
        k(  586) = (  -0.0441942  -0.0441942  -0.4861359), wk =   0.0019531
        k(  587) = (   0.1325825   0.3977476  -0.0441942), wk =   0.0019531
        k(  588) = (   0.1325825  -0.3977476   0.0441942), wk =   0.0019531
        k(  589) = (  -0.1325825   0.3977476   0.0441942), wk =   0.0019531
        k(  590) = (  -0.3977476  -0.1325825   0.0441942), wk =   0.0019531
        k(  591) = (   0.3977476   0.1325825   0.0441942), wk =   0.0019531
        k(  592) = (  -0.3977476   0.1325825  -0.0441942), wk =   0.0019531
        k(  593) = (   0.3977476  -0.1325825  -0.0441942), wk =   0.0019531
        k(  594) = (  -0.0441942   0.3977476  -0.1325825), wk =   0.0019531
        k(  595) = (   0.0441942   0.3977476   0.1325825), wk =   0.0019531
        k(  596) = (  -0.0441942  -0.3977476   0.1325825), wk =   0.0019531
        k(  597) = (   0.0441942  -0.3977476  -0.1325825), wk =   0.0019531
        k(  598) = (   0.1325825  -0.0441942  -0.3977476), wk =   0.0019531
        k(  599) = (   0.1325825   0.0441942   0.3977476), wk =   0.0019531
        k(  600) = (  -0.1325825  -0.0441942   0.3977476), wk =   0.0019531
        k(  601) = (  -0.1325825   0.0441942  -0.3977476), wk =   0.0019531
        k(  602) = (  -0.3977476  -0.0441942  -0.1325825), wk =   0.0019531
        k(  603) = (   0.3977476  -0.0441942   0.1325825), wk =   0.0019531
        k(  604) = (  -0.3977476   0.0441942   0.1325825), wk =   0.0019531
        k(  605) = (   0.3977476   0.0441942  -0.1325825), wk =   0.0019531
        k(  606) = (  -0.0441942  -0.1325825  -0.3977476), wk =   0.0019531
        k(  607) = (  -0.0441942   0.1325825   0.3977476), wk =   0.0019531
        k(  608) = (   0.0441942   0.1325825  -0.3977476), wk =   0.0019531
        k(  609) = (   0.0441942  -0.1325825   0.3977476), wk =   0.0019531
        k(  610) = (   0.0441942   0.3093592   0.0441942), wk =   0.0019531
        k(  611) = (   0.0441942  -0.3093592  -0.0441942), wk =   0.0019531
        k(  612) = (  -0.0441942   0.3093592  -0.0441942), wk =   0.0019531
        k(  613) = (  -0.3093592  -0.0441942  -0.0441942), wk =   0.0019531
        k(  614) = (   0.3093592   0.0441942  -0.0441942), wk =   0.0019531
        k(  615) = (  -0.3093592   0.0441942   0.0441942), wk =   0.0019531
        k(  616) = (   0.3093592  -0.0441942   0.0441942), wk =   0.0019531
        k(  617) = (   0.0441942   0.0441942  -0.3093592), wk =   0.0019531
        k(  618) = (   0.0441942  -0.0441942   0.3093592), wk =   0.0019531
        k(  619) = (  -0.0441942   0.0441942   0.3093592), wk =   0.0019531
        k(  620) = (  -0.0441942  -0.0441942  -0.3093592), wk =   0.0019531
        k(  621) = (   0.1325825  -0.1325825   0.1325825), wk =   0.0019531
        k(  622) = (   0.1325825   0.1325825  -0.1325825), wk =   0.0019531
        k(  623) = (  -0.1325825  -0.1325825  -0.1325825), wk =   0.0019531
        k(  624) = (   0.2209709  -0.2209709   0.0441942), wk =   0.0019531
        k(  625) = (   0.2209709   0.2209709  -0.0441942), wk =   0.0019531
        k(  626) = (  -0.2209709  -0.2209709  -0.0441942), wk =   0.0019531
        k(  627) = (   0.0441942  -0.2209709  -0.2209709), wk =   0.0019531
        k(  628) = (  -0.0441942  -0.2209709   0.2209709), wk =   0.0019531
        k(  629) = (   0.0441942   0.2209709   0.2209709), wk =   0.0019531
        k(  630) = (  -0.0441942   0.2209709  -0.2209709), wk =   0.0019531
        k(  631) = (   0.2209709   0.0441942   0.2209709), wk =   0.0019531
        k(  632) = (   0.2209709  -0.0441942  -0.2209709), wk =   0.0019531
        k(  633) = (  -0.2209709   0.0441942  -0.2209709), wk =   0.0019531
        k(  634) = (  -0.2209709  -0.0441942   0.2209709), wk =   0.0019531
        k(  635) = (   0.3093592  -0.3093592  -0.0441942), wk =   0.0019531
        k(  636) = (   0.3093592   0.3093592   0.0441942), wk =   0.0019531
        k(  637) = (  -0.3093592  -0.3093592   0.0441942), wk =   0.0019531
        k(  638) = (  -0.0441942  -0.3093592  -0.3093592), wk =   0.0019531
        k(  639) = (   0.0441942  -0.3093592   0.3093592), wk =   0.0019531
        k(  640) = (  -0.0441942   0.3093592   0.3093592), wk =   0.0019531
        k(  641) = (   0.0441942   0.3093592  -0.3093592), wk =   0.0019531
        k(  642) = (   0.3093592  -0.0441942   0.3093592), wk =   0.0019531
        k(  643) = (   0.3093592   0.0441942  -0.3093592), wk =   0.0019531
        k(  644) = (  -0.3093592  -0.0441942  -0.3093592), wk =   0.0019531
        k(  645) = (  -0.3093592   0.0441942   0.3093592), wk =   0.0019531
        k(  646) = (  -0.3093592   0.3093592   0.5745243), wk =   0.0019531
        k(  647) = (  -0.3093592  -0.3093592  -0.5745243), wk =   0.0019531
        k(  648) = (   0.3093592   0.3093592  -0.5745243), wk =   0.0019531
        k(  649) = (   0.5745243   0.3093592   0.3093592), wk =   0.0019531
        k(  650) = (  -0.5745243   0.3093592  -0.3093592), wk =   0.0019531
        k(  651) = (   0.5745243  -0.3093592  -0.3093592), wk =   0.0019531
        k(  652) = (  -0.5745243  -0.3093592   0.3093592), wk =   0.0019531
        k(  653) = (  -0.3093592   0.5745243  -0.3093592), wk =   0.0019531
        k(  654) = (  -0.3093592  -0.5745243   0.3093592), wk =   0.0019531
        k(  655) = (   0.3093592   0.5745243   0.3093592), wk =   0.0019531
        k(  656) = (   0.3093592  -0.5745243  -0.3093592), wk =   0.0019531
        k(  657) = (  -0.2209709   0.2209709   0.4861359), wk =   0.0019531
        k(  658) = (  -0.2209709  -0.2209709  -0.4861359), wk =   0.0019531
        k(  659) = (   0.2209709   0.2209709  -0.4861359), wk =   0.0019531
        k(  660) = (   0.4861359   0.2209709   0.2209709), wk =   0.0019531
        k(  661) = (  -0.4861359   0.2209709  -0.2209709), wk =   0.0019531
        k(  662) = (   0.4861359  -0.2209709  -0.2209709), wk =   0.0019531
        k(  663) = (  -0.4861359  -0.2209709   0.2209709), wk =   0.0019531
        k(  664) = (  -0.2209709   0.4861359  -0.2209709), wk =   0.0019531
        k(  665) = (  -0.2209709  -0.4861359   0.2209709), wk =   0.0019531
        k(  666) = (   0.2209709   0.4861359   0.2209709), wk =   0.0019531
        k(  667) = (   0.2209709  -0.4861359  -0.2209709), wk =   0.0019531
        k(  668) = (  -0.1325825   0.1325825   0.3977476), wk =   0.0019531
        k(  669) = (  -0.1325825  -0.1325825  -0.3977476), wk =   0.0019531
        k(  670) = (   0.1325825   0.1325825  -0.3977476), wk =   0.0019531
        k(  671) = (   0.3977476   0.1325825   0.1325825), wk =   0.0019531
        k(  672) = (  -0.3977476   0.1325825  -0.1325825), wk =   0.0019531
        k(  673) = (   0.3977476  -0.1325825  -0.1325825), wk =   0.0019531
        k(  674) = (  -0.3977476  -0.1325825   0.1325825), wk =   0.0019531
        k(  675) = (  -0.1325825   0.3977476  -0.1325825), wk =   0.0019531
        k(  676) = (  -0.1325825  -0.3977476   0.1325825), wk =   0.0019531
        k(  677) = (   0.1325825   0.3977476   0.1325825), wk =   0.0019531
        k(  678) = (   0.1325825  -0.3977476  -0.1325825), wk =   0.0019531
        k(  679) = (   0.1325825  -0.3093592   0.1325825), wk =   0.0019531
        k(  680) = (   0.1325825   0.3093592  -0.1325825), wk =   0.0019531
        k(  681) = (  -0.1325825  -0.3093592  -0.1325825), wk =   0.0019531
        k(  682) = (   0.3093592  -0.1325825  -0.1325825), wk =   0.0019531
        k(  683) = (  -0.3093592   0.1325825  -0.1325825), wk =   0.0019531
        k(  684) = (   0.3093592   0.1325825   0.1325825), wk =   0.0019531
        k(  685) = (  -0.3093592  -0.1325825   0.1325825), wk =   0.0019531
        k(  686) = (   0.1325825   0.1325825   0.3093592), wk =   0.0019531
        k(  687) = (   0.1325825  -0.1325825  -0.3093592), wk =   0.0019531
        k(  688) = (  -0.1325825   0.1325825  -0.3093592), wk =   0.0019531
        k(  689) = (  -0.1325825  -0.1325825   0.3093592), wk =   0.0019531
        k(  690) = (   0.2209709  -0.3977476   0.0441942), wk =   0.0019531
        k(  691) = (   0.2209709   0.3977476  -0.0441942), wk =   0.0019531
        k(  692) = (  -0.2209709  -0.3977476  -0.0441942), wk =   0.0019531
        k(  693) = (   0.3977476  -0.2209709  -0.0441942), wk =   0.0019531
        k(  694) = (  -0.3977476   0.2209709  -0.0441942), wk =   0.0019531
        k(  695) = (   0.3977476   0.2209709   0.0441942), wk =   0.0019531
        k(  696) = (  -0.3977476  -0.2209709   0.0441942), wk =   0.0019531
        k(  697) = (   0.0441942  -0.3977476  -0.2209709), wk =   0.0019531
        k(  698) = (  -0.0441942  -0.3977476   0.2209709), wk =   0.0019531
        k(  699) = (   0.0441942   0.3977476   0.2209709), wk =   0.0019531
        k(  700) = (  -0.0441942   0.3977476  -0.2209709), wk =   0.0019531
        k(  701) = (   0.2209709   0.0441942   0.3977476), wk =   0.0019531
        k(  702) = (   0.2209709  -0.0441942  -0.3977476), wk =   0.0019531
        k(  703) = (  -0.2209709   0.0441942  -0.3977476), wk =   0.0019531
        k(  704) = (  -0.2209709  -0.0441942   0.3977476), wk =   0.0019531
        k(  705) = (   0.3977476   0.0441942  -0.2209709), wk =   0.0019531
        k(  706) = (  -0.3977476   0.0441942   0.2209709), wk =   0.0019531
        k(  707) = (   0.3977476  -0.0441942   0.2209709), wk =   0.0019531
        k(  708) = (  -0.3977476  -0.0441942  -0.2209709), wk =   0.0019531
        k(  709) = (   0.0441942  -0.2209709   0.3977476), wk =   0.0019531
        k(  710) = (   0.0441942   0.2209709  -0.3977476), wk =   0.0019531
        k(  711) = (  -0.0441942   0.2209709   0.3977476), wk =   0.0019531
        k(  712) = (  -0.0441942  -0.2209709  -0.3977476), wk =   0.0019531
        k(  713) = (  -0.3977476   0.2209709   0.6629126), wk =   0.0019531
        k(  714) = (  -0.3977476  -0.2209709  -0.6629126), wk =   0.0019531
        k(  715) = (   0.3977476   0.2209709  -0.6629126), wk =   0.0019531
        k(  716) = (  -0.2209709   0.3977476  -0.6629126), wk =   0.0019531
        k(  717) = (   0.2209709  -0.3977476  -0.6629126), wk =   0.0019531
        k(  718) = (  -0.2209709  -0.3977476   0.6629126), wk =   0.0019531
        k(  719) = (   0.2209709   0.3977476   0.6629126), wk =   0.0019531
        k(  720) = (   0.6629126   0.2209709   0.3977476), wk =   0.0019531
        k(  721) = (  -0.6629126   0.2209709  -0.3977476), wk =   0.0019531
        k(  722) = (   0.6629126  -0.2209709  -0.3977476), wk =   0.0019531
        k(  723) = (  -0.6629126  -0.2209709   0.3977476), wk =   0.0019531
        k(  724) = (  -0.3977476   0.6629126  -0.2209709), wk =   0.0019531
        k(  725) = (  -0.3977476  -0.6629126   0.2209709), wk =   0.0019531
        k(  726) = (   0.3977476   0.6629126   0.2209709), wk =   0.0019531
        k(  727) = (   0.3977476  -0.6629126  -0.2209709), wk =   0.0019531
        k(  728) = (  -0.2209709   0.6629126   0.3977476), wk =   0.0019531
        k(  729) = (   0.2209709   0.6629126  -0.3977476), wk =   0.0019531
        k(  730) = (  -0.2209709  -0.6629126  -0.3977476), wk =   0.0019531
        k(  731) = (   0.2209709  -0.6629126   0.3977476), wk =   0.0019531
        k(  732) = (   0.6629126   0.3977476  -0.2209709), wk =   0.0019531
        k(  733) = (   0.6629126  -0.3977476   0.2209709), wk =   0.0019531
        k(  734) = (  -0.6629126  -0.3977476  -0.2209709), wk =   0.0019531
        k(  735) = (  -0.6629126   0.3977476   0.2209709), wk =   0.0019531
        k(  736) = (  -0.3093592   0.1325825   0.5745243), wk =   0.0019531
        k(  737) = (  -0.3093592  -0.1325825  -0.5745243), wk =   0.0019531
        k(  738) = (   0.3093592   0.1325825  -0.5745243), wk =   0.0019531
        k(  739) = (  -0.1325825   0.3093592  -0.5745243), wk =   0.0019531
        k(  740) = (   0.1325825  -0.3093592  -0.5745243), wk =   0.0019531
        k(  741) = (  -0.1325825  -0.3093592   0.5745243), wk =   0.0019531
        k(  742) = (   0.1325825   0.3093592   0.5745243), wk =   0.0019531
        k(  743) = (   0.5745243   0.1325825   0.3093592), wk =   0.0019531
        k(  744) = (  -0.5745243   0.1325825  -0.3093592), wk =   0.0019531
        k(  745) = (   0.5745243  -0.1325825  -0.3093592), wk =   0.0019531
        k(  746) = (  -0.5745243  -0.1325825   0.3093592), wk =   0.0019531
        k(  747) = (  -0.3093592   0.5745243  -0.1325825), wk =   0.0019531
        k(  748) = (  -0.3093592  -0.5745243   0.1325825), wk =   0.0019531
        k(  749) = (   0.3093592   0.5745243   0.1325825), wk =   0.0019531
        k(  750) = (   0.3093592  -0.5745243  -0.1325825), wk =   0.0019531
        k(  751) = (  -0.1325825   0.5745243   0.3093592), wk =   0.0019531
        k(  752) = (   0.1325825   0.5745243  -0.3093592), wk =   0.0019531
        k(  753) = (  -0.1325825  -0.5745243  -0.3093592), wk =   0.0019531
        k(  754) = (   0.1325825  -0.5745243   0.3093592), wk =   0.0019531
        k(  755) = (   0.5745243   0.3093592  -0.1325825), wk =   0.0019531
        k(  756) = (   0.5745243  -0.3093592   0.1325825), wk =   0.0019531
        k(  757) = (  -0.5745243  -0.3093592  -0.1325825), wk =   0.0019531
        k(  758) = (  -0.5745243   0.3093592   0.1325825), wk =   0.0019531
        k(  759) = (  -0.2209709   0.0441942   0.4861359), wk =   0.0019531
        k(  760) = (  -0.2209709  -0.0441942  -0.4861359), wk =   0.0019531
        k(  761) = (   0.2209709   0.0441942  -0.4861359), wk =   0.0019531
        k(  762) = (  -0.0441942   0.2209709  -0.4861359), wk =   0.0019531
        k(  763) = (   0.0441942  -0.2209709  -0.4861359), wk =   0.0019531
        k(  764) = (  -0.0441942  -0.2209709   0.4861359), wk =   0.0019531
        k(  765) = (   0.0441942   0.2209709   0.4861359), wk =   0.0019531
        k(  766) = (   0.4861359   0.0441942   0.2209709), wk =   0.0019531
        k(  767) = (  -0.4861359   0.0441942  -0.2209709), wk =   0.0019531
        k(  768) = (   0.4861359  -0.0441942  -0.2209709), wk =   0.0019531
        k(  769) = (  -0.4861359  -0.0441942   0.2209709), wk =   0.0019531
        k(  770) = (  -0.2209709   0.4861359  -0.0441942), wk =   0.0019531
        k(  771) = (  -0.2209709  -0.4861359   0.0441942), wk =   0.0019531
        k(  772) = (   0.2209709   0.4861359   0.0441942), wk =   0.0019531
        k(  773) = (   0.2209709  -0.4861359  -0.0441942), wk =   0.0019531
        k(  774) = (  -0.0441942   0.4861359   0.2209709), wk =   0.0019531
        k(  775) = (   0.0441942   0.4861359  -0.2209709), wk =   0.0019531
        k(  776) = (  -0.0441942  -0.4861359  -0.2209709), wk =   0.0019531
        k(  777) = (   0.0441942  -0.4861359   0.2209709), wk =   0.0019531
        k(  778) = (   0.4861359   0.2209709  -0.0441942), wk =   0.0019531
        k(  779) = (   0.4861359  -0.2209709   0.0441942), wk =   0.0019531
        k(  780) = (  -0.4861359  -0.2209709  -0.0441942), wk =   0.0019531
        k(  781) = (  -0.4861359   0.2209709   0.0441942), wk =   0.0019531
        k(  782) = (   0.1325825  -0.4861359   0.1325825), wk =   0.0019531
        k(  783) = (   0.1325825   0.4861359  -0.1325825), wk =   0.0019531
        k(  784) = (  -0.1325825  -0.4861359  -0.1325825), wk =   0.0019531
        k(  785) = (   0.4861359  -0.1325825  -0.1325825), wk =   0.0019531
        k(  786) = (  -0.4861359   0.1325825  -0.1325825), wk =   0.0019531
        k(  787) = (   0.4861359   0.1325825   0.1325825), wk =   0.0019531
        k(  788) = (  -0.4861359  -0.1325825   0.1325825), wk =   0.0019531
        k(  789) = (   0.1325825   0.1325825   0.4861359), wk =   0.0019531
        k(  790) = (   0.1325825  -0.1325825  -0.4861359), wk =   0.0019531
        k(  791) = (  -0.1325825   0.1325825  -0.4861359), wk =   0.0019531
        k(  792) = (  -0.1325825  -0.1325825   0.4861359), wk =   0.0019531
        k(  793) = (  -0.4861359   0.1325825   0.7513010), wk =   0.0019531
        k(  794) = (  -0.4861359  -0.1325825  -0.7513010), wk =   0.0019531
        k(  795) = (   0.4861359   0.1325825  -0.7513010), wk =   0.0019531
        k(  796) = (  -0.1325825   0.4861359  -0.7513010), wk =   0.0019531
        k(  797) = (   0.1325825  -0.4861359  -0.7513010), wk =   0.0019531
        k(  798) = (  -0.1325825  -0.4861359   0.7513010), wk =   0.0019531
        k(  799) = (   0.1325825   0.4861359   0.7513010), wk =   0.0019531
        k(  800) = (   0.7513010   0.1325825   0.4861359), wk =   0.0019531
        k(  801) = (  -0.7513010   0.1325825  -0.4861359), wk =   0.0019531
        k(  802) = (   0.7513010  -0.1325825  -0.4861359), wk =   0.0019531
        k(  803) = (  -0.7513010  -0.1325825   0.4861359), wk =   0.0019531
        k(  804) = (  -0.4861359   0.7513010  -0.1325825), wk =   0.0019531
        k(  805) = (  -0.4861359  -0.7513010   0.1325825), wk =   0.0019531
        k(  806) = (   0.4861359   0.7513010   0.1325825), wk =   0.0019531
        k(  807) = (   0.4861359  -0.7513010  -0.1325825), wk =   0.0019531
        k(  808) = (  -0.1325825   0.7513010   0.4861359), wk =   0.0019531
        k(  809) = (   0.1325825   0.7513010  -0.4861359), wk =   0.0019531
        k(  810) = (  -0.1325825  -0.7513010  -0.4861359), wk =   0.0019531
        k(  811) = (   0.1325825  -0.7513010   0.4861359), wk =   0.0019531
        k(  812) = (   0.7513010   0.4861359  -0.1325825), wk =   0.0019531
        k(  813) = (   0.7513010  -0.4861359   0.1325825), wk =   0.0019531
        k(  814) = (  -0.7513010  -0.4861359  -0.1325825), wk =   0.0019531
        k(  815) = (  -0.7513010   0.4861359   0.1325825), wk =   0.0019531
        k(  816) = (  -0.3977476   0.0441942   0.6629126), wk =   0.0019531
        k(  817) = (  -0.3977476  -0.0441942  -0.6629126), wk =   0.0019531
        k(  818) = (   0.3977476   0.0441942  -0.6629126), wk =   0.0019531
        k(  819) = (  -0.0441942   0.3977476  -0.6629126), wk =   0.0019531
        k(  820) = (   0.0441942  -0.3977476  -0.6629126), wk =   0.0019531
        k(  821) = (  -0.0441942  -0.3977476   0.6629126), wk =   0.0019531
        k(  822) = (   0.0441942   0.3977476   0.6629126), wk =   0.0019531
        k(  823) = (   0.6629126   0.0441942   0.3977476), wk =   0.0019531
        k(  824) = (  -0.6629126   0.0441942  -0.3977476), wk =   0.0019531
        k(  825) = (   0.6629126  -0.0441942  -0.3977476), wk =   0.0019531
        k(  826) = (  -0.6629126  -0.0441942   0.3977476), wk =   0.0019531
        k(  827) = (  -0.3977476   0.6629126  -0.0441942), wk =   0.0019531
        k(  828) = (  -0.3977476  -0.6629126   0.0441942), wk =   0.0019531
        k(  829) = (   0.3977476   0.6629126   0.0441942), wk =   0.0019531
        k(  830) = (   0.3977476  -0.6629126  -0.0441942), wk =   0.0019531
        k(  831) = (  -0.0441942   0.6629126   0.3977476), wk =   0.0019531
        k(  832) = (   0.0441942   0.6629126  -0.3977476), wk =   0.0019531
        k(  833) = (  -0.0441942  -0.6629126  -0.3977476), wk =   0.0019531
        k(  834) = (   0.0441942  -0.6629126   0.3977476), wk =   0.0019531
        k(  835) = (   0.6629126   0.3977476  -0.0441942), wk =   0.0019531
        k(  836) = (   0.6629126  -0.3977476   0.0441942), wk =   0.0019531
        k(  837) = (  -0.6629126  -0.3977476  -0.0441942), wk =   0.0019531
        k(  838) = (  -0.6629126   0.3977476   0.0441942), wk =   0.0019531
        k(  839) = (  -0.3093592  -0.0441942   0.5745243), wk =   0.0019531
        k(  840) = (  -0.3093592   0.0441942  -0.5745243), wk =   0.0019531
        k(  841) = (   0.3093592  -0.0441942  -0.5745243), wk =   0.0019531
        k(  842) = (   0.0441942   0.3093592  -0.5745243), wk =   0.0019531
        k(  843) = (  -0.0441942  -0.3093592  -0.5745243), wk =   0.0019531
        k(  844) = (   0.0441942  -0.3093592   0.5745243), wk =   0.0019531
        k(  845) = (  -0.0441942   0.3093592   0.5745243), wk =   0.0019531
        k(  846) = (   0.5745243  -0.0441942   0.3093592), wk =   0.0019531
        k(  847) = (  -0.5745243  -0.0441942  -0.3093592), wk =   0.0019531
        k(  848) = (   0.5745243   0.0441942  -0.3093592), wk =   0.0019531
        k(  849) = (  -0.5745243   0.0441942   0.3093592), wk =   0.0019531
        k(  850) = (  -0.3093592   0.5745243   0.0441942), wk =   0.0019531
        k(  851) = (  -0.3093592  -0.5745243  -0.0441942), wk =   0.0019531
        k(  852) = (   0.3093592   0.5745243  -0.0441942), wk =   0.0019531
        k(  853) = (   0.3093592  -0.5745243   0.0441942), wk =   0.0019531
        k(  854) = (   0.0441942   0.5745243   0.3093592), wk =   0.0019531
        k(  855) = (  -0.0441942   0.5745243  -0.3093592), wk =   0.0019531
        k(  856) = (   0.0441942  -0.5745243  -0.3093592), wk =   0.0019531
        k(  857) = (  -0.0441942  -0.5745243   0.3093592), wk =   0.0019531
        k(  858) = (   0.5745243   0.3093592   0.0441942), wk =   0.0019531
        k(  859) = (   0.5745243  -0.3093592  -0.0441942), wk =   0.0019531
        k(  860) = (  -0.5745243  -0.3093592   0.0441942), wk =   0.0019531
        k(  861) = (  -0.5745243   0.3093592  -0.0441942), wk =   0.0019531
        k(  862) = (   0.1325825   0.7513010   0.1325825), wk =   0.0019531
        k(  863) = (   0.1325825  -0.7513010  -0.1325825), wk =   0.0019531
        k(  864) = (  -0.1325825   0.7513010  -0.1325825), wk =   0.0019531
        k(  865) = (  -0.7513010  -0.1325825  -0.1325825), wk =   0.0019531
        k(  866) = (   0.7513010   0.1325825  -0.1325825), wk =   0.0019531
        k(  867) = (  -0.7513010   0.1325825   0.1325825), wk =   0.0019531
        k(  868) = (   0.7513010  -0.1325825   0.1325825), wk =   0.0019531
        k(  869) = (   0.1325825   0.1325825  -0.7513010), wk =   0.0019531
        k(  870) = (   0.1325825  -0.1325825   0.7513010), wk =   0.0019531
        k(  871) = (  -0.1325825   0.1325825   0.7513010), wk =   0.0019531
        k(  872) = (  -0.1325825  -0.1325825  -0.7513010), wk =   0.0019531
        k(  873) = (   0.2209709   0.6629126   0.0441942), wk =   0.0019531
        k(  874) = (   0.2209709  -0.6629126  -0.0441942), wk =   0.0019531
        k(  875) = (  -0.2209709   0.6629126  -0.0441942), wk =   0.0019531
        k(  876) = (  -0.6629126  -0.2209709  -0.0441942), wk =   0.0019531
        k(  877) = (   0.6629126   0.2209709  -0.0441942), wk =   0.0019531
        k(  878) = (  -0.6629126   0.2209709   0.0441942), wk =   0.0019531
        k(  879) = (   0.6629126  -0.2209709   0.0441942), wk =   0.0019531
        k(  880) = (   0.0441942   0.6629126  -0.2209709), wk =   0.0019531
        k(  881) = (  -0.0441942   0.6629126   0.2209709), wk =   0.0019531
        k(  882) = (   0.0441942  -0.6629126   0.2209709), wk =   0.0019531
        k(  883) = (  -0.0441942  -0.6629126  -0.2209709), wk =   0.0019531
        k(  884) = (   0.2209709   0.0441942  -0.6629126), wk =   0.0019531
        k(  885) = (   0.2209709  -0.0441942   0.6629126), wk =   0.0019531
        k(  886) = (  -0.2209709   0.0441942   0.6629126), wk =   0.0019531
        k(  887) = (  -0.2209709  -0.0441942  -0.6629126), wk =   0.0019531
        k(  888) = (  -0.6629126   0.0441942  -0.2209709), wk =   0.0019531
        k(  889) = (   0.6629126   0.0441942   0.2209709), wk =   0.0019531
        k(  890) = (  -0.6629126  -0.0441942   0.2209709), wk =   0.0019531
        k(  891) = (   0.6629126  -0.0441942  -0.2209709), wk =   0.0019531
        k(  892) = (   0.0441942  -0.2209709  -0.6629126), wk =   0.0019531
        k(  893) = (   0.0441942   0.2209709   0.6629126), wk =   0.0019531
        k(  894) = (  -0.0441942   0.2209709  -0.6629126), wk =   0.0019531
        k(  895) = (  -0.0441942  -0.2209709   0.6629126), wk =   0.0019531
        k(  896) = (   0.1325825   0.5745243   0.1325825), wk =   0.0019531
        k(  897) = (   0.1325825  -0.5745243  -0.1325825), wk =   0.0019531
        k(  898) = (  -0.1325825   0.5745243  -0.1325825), wk =   0.0019531
        k(  899) = (  -0.5745243  -0.1325825  -0.1325825), wk =   0.0019531
        k(  900) = (   0.5745243   0.1325825  -0.1325825), wk =   0.0019531
        k(  901) = (  -0.5745243   0.1325825   0.1325825), wk =   0.0019531
        k(  902) = (   0.5745243  -0.1325825   0.1325825), wk =   0.0019531
        k(  903) = (   0.1325825   0.1325825  -0.5745243), wk =   0.0019531
        k(  904) = (   0.1325825  -0.1325825   0.5745243), wk =   0.0019531
        k(  905) = (  -0.1325825   0.1325825   0.5745243), wk =   0.0019531
        k(  906) = (  -0.1325825  -0.1325825  -0.5745243), wk =   0.0019531
        k(  907) = (   0.2209709  -0.2209709   0.2209709), wk =   0.0019531
        k(  908) = (   0.2209709   0.2209709  -0.2209709), wk =   0.0019531
        k(  909) = (  -0.2209709  -0.2209709  -0.2209709), wk =   0.0019531
        k(  910) = (   0.3093592  -0.3093592   0.1325825), wk =   0.0019531
        k(  911) = (   0.3093592   0.3093592  -0.1325825), wk =   0.0019531
        k(  912) = (  -0.3093592  -0.3093592  -0.1325825), wk =   0.0019531
        k(  913) = (   0.1325825  -0.3093592  -0.3093592), wk =   0.0019531
        k(  914) = (  -0.1325825  -0.3093592   0.3093592), wk =   0.0019531
        k(  915) = (   0.1325825   0.3093592   0.3093592), wk =   0.0019531
        k(  916) = (  -0.1325825   0.3093592  -0.3093592), wk =   0.0019531
        k(  917) = (   0.3093592   0.1325825   0.3093592), wk =   0.0019531
        k(  918) = (   0.3093592  -0.1325825  -0.3093592), wk =   0.0019531
        k(  919) = (  -0.3093592   0.1325825  -0.3093592), wk =   0.0019531
        k(  920) = (  -0.3093592  -0.1325825   0.3093592), wk =   0.0019531
        k(  921) = (  -0.3093592   0.3093592   0.7513010), wk =   0.0019531
        k(  922) = (  -0.3093592  -0.3093592  -0.7513010), wk =   0.0019531
        k(  923) = (   0.3093592   0.3093592  -0.7513010), wk =   0.0019531
        k(  924) = (   0.7513010   0.3093592   0.3093592), wk =   0.0019531
        k(  925) = (  -0.7513010   0.3093592  -0.3093592), wk =   0.0019531
        k(  926) = (   0.7513010  -0.3093592  -0.3093592), wk =   0.0019531
        k(  927) = (  -0.7513010  -0.3093592   0.3093592), wk =   0.0019531
        k(  928) = (  -0.3093592   0.7513010  -0.3093592), wk =   0.0019531
        k(  929) = (  -0.3093592  -0.7513010   0.3093592), wk =   0.0019531
        k(  930) = (   0.3093592   0.7513010   0.3093592), wk =   0.0019531
        k(  931) = (   0.3093592  -0.7513010  -0.3093592), wk =   0.0019531
        k(  932) = (  -0.2209709   0.2209709   0.6629126), wk =   0.0019531
        k(  933) = (  -0.2209709  -0.2209709  -0.6629126), wk =   0.0019531
        k(  934) = (   0.2209709   0.2209709  -0.6629126), wk =   0.0019531
        k(  935) = (   0.6629126   0.2209709   0.2209709), wk =   0.0019531
        k(  936) = (  -0.6629126   0.2209709  -0.2209709), wk =   0.0019531
        k(  937) = (   0.6629126  -0.2209709  -0.2209709), wk =   0.0019531
        k(  938) = (  -0.6629126  -0.2209709   0.2209709), wk =   0.0019531
        k(  939) = (  -0.2209709   0.6629126  -0.2209709), wk =   0.0019531
        k(  940) = (  -0.2209709  -0.6629126   0.2209709), wk =   0.0019531
        k(  941) = (   0.2209709   0.6629126   0.2209709), wk =   0.0019531
        k(  942) = (   0.2209709  -0.6629126  -0.2209709), wk =   0.0019531
        k(  943) = (   0.2209709  -0.3977476   0.2209709), wk =   0.0019531
        k(  944) = (   0.2209709   0.3977476  -0.2209709), wk =   0.0019531
        k(  945) = (  -0.2209709  -0.3977476  -0.2209709), wk =   0.0019531
        k(  946) = (   0.3977476  -0.2209709  -0.2209709), wk =   0.0019531
        k(  947) = (  -0.3977476   0.2209709  -0.2209709), wk =   0.0019531
        k(  948) = (   0.3977476   0.2209709   0.2209709), wk =   0.0019531
        k(  949) = (  -0.3977476  -0.2209709   0.2209709), wk =   0.0019531
        k(  950) = (   0.2209709   0.2209709   0.3977476), wk =   0.0019531
        k(  951) = (   0.2209709  -0.2209709  -0.3977476), wk =   0.0019531
        k(  952) = (  -0.2209709   0.2209709  -0.3977476), wk =   0.0019531
        k(  953) = (  -0.2209709  -0.2209709   0.3977476), wk =   0.0019531
        k(  954) = (  -0.3977476   0.2209709   0.8396893), wk =   0.0019531
        k(  955) = (  -0.3977476  -0.2209709  -0.8396893), wk =   0.0019531
        k(  956) = (   0.3977476   0.2209709  -0.8396893), wk =   0.0019531
        k(  957) = (  -0.2209709   0.3977476  -0.8396893), wk =   0.0019531
        k(  958) = (   0.2209709  -0.3977476  -0.8396893), wk =   0.0019531
        k(  959) = (  -0.2209709  -0.3977476   0.8396893), wk =   0.0019531
        k(  960) = (   0.2209709   0.3977476   0.8396893), wk =   0.0019531
        k(  961) = (   0.8396893   0.2209709   0.3977476), wk =   0.0019531
        k(  962) = (  -0.8396893   0.2209709  -0.3977476), wk =   0.0019531
        k(  963) = (   0.8396893  -0.2209709  -0.3977476), wk =   0.0019531
        k(  964) = (  -0.8396893  -0.2209709   0.3977476), wk =   0.0019531
        k(  965) = (  -0.3977476   0.8396893  -0.2209709), wk =   0.0019531
        k(  966) = (  -0.3977476  -0.8396893   0.2209709), wk =   0.0019531
        k(  967) = (   0.3977476   0.8396893   0.2209709), wk =   0.0019531
        k(  968) = (   0.3977476  -0.8396893  -0.2209709), wk =   0.0019531
        k(  969) = (  -0.2209709   0.8396893   0.3977476), wk =   0.0019531
        k(  970) = (   0.2209709   0.8396893  -0.3977476), wk =   0.0019531
        k(  971) = (  -0.2209709  -0.8396893  -0.3977476), wk =   0.0019531
        k(  972) = (   0.2209709  -0.8396893   0.3977476), wk =   0.0019531
        k(  973) = (   0.8396893   0.3977476  -0.2209709), wk =   0.0019531
        k(  974) = (   0.8396893  -0.3977476   0.2209709), wk =   0.0019531
        k(  975) = (  -0.8396893  -0.3977476  -0.2209709), wk =   0.0019531
        k(  976) = (  -0.8396893   0.3977476   0.2209709), wk =   0.0019531
        k(  977) = (  -0.3093592   0.1325825   0.7513010), wk =   0.0019531
        k(  978) = (  -0.3093592  -0.1325825  -0.7513010), wk =   0.0019531
        k(  979) = (   0.3093592   0.1325825  -0.7513010), wk =   0.0019531
        k(  980) = (  -0.1325825   0.3093592  -0.7513010), wk =   0.0019531
        k(  981) = (   0.1325825  -0.3093592  -0.7513010), wk =   0.0019531
        k(  982) = (  -0.1325825  -0.3093592   0.7513010), wk =   0.0019531
        k(  983) = (   0.1325825   0.3093592   0.7513010), wk =   0.0019531
        k(  984) = (   0.7513010   0.1325825   0.3093592), wk =   0.0019531
        k(  985) = (  -0.7513010   0.1325825  -0.3093592), wk =   0.0019531
        k(  986) = (   0.7513010  -0.1325825  -0.3093592), wk =   0.0019531
        k(  987) = (  -0.7513010  -0.1325825   0.3093592), wk =   0.0019531
        k(  988) = (  -0.3093592   0.7513010  -0.1325825), wk =   0.0019531
        k(  989) = (  -0.3093592  -0.7513010   0.1325825), wk =   0.0019531
        k(  990) = (   0.3093592   0.7513010   0.1325825), wk =   0.0019531
        k(  991) = (   0.3093592  -0.7513010  -0.1325825), wk =   0.0019531
        k(  992) = (  -0.1325825   0.7513010   0.3093592), wk =   0.0019531
        k(  993) = (   0.1325825   0.7513010  -0.3093592), wk =   0.0019531
[...]

    -3.2358  -0.4565   2.6140   3.9191

     occupation numbers 
     1.0000   1.0000   1.0000   1.0000

          k = 0.3924 0.2182-0.8284 (   420 PWs)   bands (ev):

    -3.2361  -0.4574   2.6165   3.9181

     occupation numbers 
     1.0000   1.0000   1.0000   1.0000

          k =-0.2179 0.3925-0.8284 (   420 PWs)   bands (ev):

    -3.2377  -0.4619   2.6173   3.9249

     occupation numbers 
     1.0000   1.0000   1.0000   1.0000

          k = 0.2178-0.3921-0.8283 (   420 PWs)   bands (ev):

    -3.2371  -0.4585   2.6145   3.9226

     occupation numbers 
     1.0000   1.0000   1.0000   1.0000

          k =-0.2180-0.3926 0.8284 (   420 PWs)   bands (ev):

    -3.2361  -0.4579   2.6155   3.9199

     occupation numbers 
     1.0000   1.0000   1.0000   1.0000

          k = 0.2181 0.3923 0.8283 (   420 PWs)   bands (ev):

    -3.2358  -0.4560   2.6150   3.9173

     occupation numbers 
     1.0000   1.0000   1.0000   1.0000

          k = 0.8284 0.2181 0.3924 (   420 PWs)   bands (ev):

    -3.2377  -0.4617   2.6181   3.9235

     occupation numbers 
     1.0000   1.0000   1.0000   1.0000

          k =-0.8283 0.2178-0.3925 (   420 PWs)   bands (ev):

    -3.2359  -0.4566   2.6134   3.9199

     occupation numbers 
     1.0000   1.0000   1.0000   1.0000

          k = 0.8282-0.2177-0.3923 (   420 PWs)   bands (ev):

    -3.2368  -0.4579   2.6133   3.9226

     occupation numbers 
     1.0000   1.0000   1.0000   1.0000

          k =-0.8284-0.2183 0.3924 (   420 PWs)   bands (ev):

    -3.2365  -0.4583   2.6171   3.9189

     occupation numbers 
     1.0000   1.0000   1.0000   1.0000

          k =-0.3922 0.8283-0.2182 (   420 PWs)   bands (ev):

    -3.2364  -0.4573   2.6157   3.9188

     occupation numbers 
     1.0000   1.0000   1.0000   1.0000

          k =-0.3926-0.8285 0.2181 (   420 PWs)   bands (ev):

    -3.2374  -0.4620   2.6183   3.9237

     occupation numbers 
     1.0000   1.0000   1.0000   1.0000

          k = 0.3926 0.8284 0.2179 (   420 PWs)   bands (ev):

    -3.2366  -0.4590   2.6151   3.9223

     occupation numbers 
     1.0000   1.0000   1.0000   1.0000

          k = 0.3921-0.8282-0.2178 (   420 PWs)   bands (ev):

    -3.2362  -0.4562   2.6128   3.9202

     occupation numbers 
     1.0000   1.0000   1.0000   1.0000

          k =-0.2177 0.8282 0.3922 (   420 PWs)   bands (ev):

    -3.2362  -0.4564   2.6125   3.9208

     occupation numbers 
     1.0000   1.0000   1.0000   1.0000

          k = 0.2182 0.8285-0.3925 (   420 PWs)   bands (ev):

    -3.2374  -0.4618   2.6185   3.9232

     occupation numbers 
     1.0000   1.0000   1.0000   1.0000

          k =-0.2182-0.8283-0.3922 (   420 PWs)   bands (ev):

    -3.2366  -0.4582   2.6167   3.9194

     occupation numbers 
     1.0000   1.0000   1.0000   1.0000

          k = 0.2178-0.8283 0.3926 (   420 PWs)   bands (ev):

    -3.2364  -0.4581   2.6141   3.9218

     occupation numbers 
     1.0000   1.0000   1.0000   1.0000

          k = 0.8284 0.3926-0.2180 (   420 PWs)   bands (ev):

    -3.2364  -0.4589   2.6159   3.9212

     occupation numbers 
     1.0000   1.0000   1.0000   1.0000

          k = 0.8282-0.3922 0.2181 (   420 PWs)   bands (ev):

    -3.2359  -0.4560   2.6147   3.9176

     occupation numbers 
     1.0000   1.0000   1.0000   1.0000

          k =-0.8285-0.3925-0.2180 (   420 PWs)   bands (ev):

    -3.2376  -0.4620   2.6176   3.9247

     occupation numbers 
     1.0000   1.0000   1.0000   1.0000

          k =-0.8282 0.3921 0.2179 (   420 PWs)   bands (ev):

    -3.2368  -0.4575   2.6140   3.9213

     occupation numbers 
     1.0000   1.0000   1.0000   1.0000

          k =-0.3051 0.1306 0.7411 (   416 PWs)   bands (ev):

    -2.4254  -0.9195   1.8195   3.2148

     occupation numbers 
     1.0000   1.0000   1.0000   1.0000

          k =-0.3053-0.1307-0.7412 (   416 PWs)   bands (ev):

    -2.4243  -0.9175   1.8214   3.2087

     occupation numbers 
     1.0000   1.0000   1.0000   1.0000

          k = 0.3052 0.1310-0.7412 (   416 PWs)   bands (ev):

    -2.4244  -0.9177   1.8219   3.2086

     occupation numbers 
     1.0000   1.0000   1.0000   1.0000

          k =-0.1308 0.3053-0.7412 (   416 PWs)   bands (ev):

    -2.4256  -0.9204   1.8205   3.2152

     occupation numbers 
     1.0000   1.0000   1.0000   1.0000

          k = 0.1307-0.3050-0.7411 (   416 PWs)   bands (ev):

    -2.4253  -0.9194   1.8195   3.2147

     occupation numbers 
     1.0000   1.0000   1.0000   1.0000

          k =-0.1308-0.3054 0.7412 (   416 PWs)   bands (ev):

    -2.4244  -0.9178   1.8218   3.2089

     occupation numbers 
     1.0000   1.0000   1.0000   1.0000

          k = 0.1309 0.3051 0.7411 (   416 PWs)   bands (ev):

    -2.4242  -0.9173   1.8215   3.2084

     occupation numbers 
     1.0000   1.0000   1.0000   1.0000

          k = 0.7412 0.1309 0.3052 (   416 PWs)   bands (ev):

    -2.4255  -0.9201   1.8208   3.2142

     occupation numbers 
     1.0000   1.0000   1.0000   1.0000

          k =-0.7411 0.1306-0.3053 (   416 PWs)   bands (ev):

    -2.4245  -0.9178   1.8210   3.2096

     occupation numbers 
     1.0000   1.0000   1.0000   1.0000

          k = 0.7411-0.1305-0.3051 (   416 PWs)   bands (ev):

    -2.4252  -0.9192   1.8196   3.2139

     occupation numbers 
     1.0000   1.0000   1.0000   1.0000

          k =-0.7412-0.1311 0.3052 (   416 PWs)   bands (ev):

    -2.4246  -0.9182   1.8217   3.2095

     occupation numbers 
     1.0000   1.0000   1.0000   1.0000

          k =-0.3050 0.7411-0.1310 (   416 PWs)   bands (ev):

    -2.4247  -0.9182   1.8209   3.2108

     occupation numbers 
     1.0000   1.0000   1.0000   1.0000

          k =-0.3054-0.7412 0.1309 (   416 PWs)   bands (ev):

    -2.4253  -0.9200   1.8213   3.2131

     occupation numbers 
     1.0000   1.0000   1.0000   1.0000

          k = 0.3054 0.7412 0.1307 (   416 PWs)   bands (ev):

    -2.4249  -0.9188   1.8211   3.2114

     occupation numbers 
     1.0000   1.0000   1.0000   1.0000

          k = 0.3050-0.7410-0.1306 (   416 PWs)   bands (ev):

    -2.4247  -0.9184   1.8197   3.2124

     occupation numbers 
     1.0000   1.0000   1.0000   1.0000

          k =-0.1306 0.7410 0.3050 (   416 PWs)   bands (ev):

    -2.4248  -0.9185   1.8197   3.2125

     occupation numbers 
     1.0000   1.0000   1.0000   1.0000

          k = 0.1310 0.7412-0.3053 (   416 PWs)   bands (ev):

    -2.4253  -0.9199   1.8213   3.2130

     occupation numbers 
     1.0000   1.0000   1.0000   1.0000

          k =-0.1310-0.7411-0.3050 (   416 PWs)   bands (ev):

    -2.4248  -0.9185   1.8211   3.2109

     occupation numbers 
     1.0000   1.0000   1.0000   1.0000

          k = 0.1306-0.7412 0.3053 (   416 PWs)   bands (ev):

    -2.4248  -0.9185   1.8208   3.2113

     occupation numbers 
     1.0000   1.0000   1.0000   1.0000

          k = 0.7412 0.3054-0.1308 (   416 PWs)   bands (ev):

    -2.4247  -0.9184   1.8217   3.2100

     occupation numbers 
     1.0000   1.0000   1.0000   1.0000

          k = 0.7411-0.3050 0.1309 (   416 PWs)   bands (ev):

    -2.4243  -0.9176   1.8210   3.2093

     occupation numbers 
     1.0000   1.0000   1.0000   1.0000

          k =-0.7412-0.3053-0.1308 (   416 PWs)   bands (ev):

    -2.4255  -0.9202   1.8208   3.2145

     occupation numbers 
     1.0000   1.0000   1.0000   1.0000

          k =-0.7410 0.3049 0.1307 (   416 PWs)   bands (ev):

    -2.4251  -0.9190   1.8196   3.2138

     occupation numbers 
     1.0000   1.0000   1.0000   1.0000

          k = 0.2182 0.8283 0.2178 (   418 PWs)   bands (ev):

    -2.8809  -0.7362   2.2259   3.9312

     occupation numbers 
     1.0000   1.0000   1.0000   1.0000

          k = 0.2177-0.8282-0.2178 (   418 PWs)   bands (ev):

    -2.8802  -0.7349   2.2224   3.9330

     occupation numbers 
     1.0000   1.0000   1.0000   1.0000

          k =-0.2178 0.8283-0.2182 (   418 PWs)   bands (ev):

    -2.8806  -0.7355   2.2250   3.9310

     occupation numbers 
     1.0000   1.0000   1.0000   1.0000

          k =-0.8284-0.2182-0.2180 (   418 PWs)   bands (ev):

    -2.8817  -0.7392   2.2269   3.9354

     occupation numbers 
     1.0000   1.0000   1.0000   1.0000

          k = 0.8284 0.2182-0.2180 (   418 PWs)   bands (ev):

    -2.8808  -0.7358   2.2270   3.9292

     occupation numbers 
     1.0000   1.0000   1.0000   1.0000

          k =-0.8283 0.2177 0.2179 (   418 PWs)   bands (ev):

    -2.8806  -0.7361   2.2229   3.9349

     occupation numbers 
     1.0000   1.0000   1.0000   1.0000

          k = 0.8283-0.2178 0.2181 (   418 PWs)   bands (ev):

    -2.8801  -0.7342   2.2247   3.9289

     occupation numbers 
     1.0000   1.0000   1.0000   1.0000

          k = 0.2180 0.2182-0.8284 (   418 PWs)   bands (ev):

    -2.8805  -0.7349   2.2268   3.9278

     occupation numbers 
     1.0000   1.0000   1.0000   1.0000

          k = 0.2180-0.2181 0.8284 (   418 PWs)   bands (ev):

    -2.8817  -0.7393   2.2263   3.9365

     occupation numbers 
     1.0000   1.0000   1.0000   1.0000

          k =-0.2179 0.2178 0.8283 (   418 PWs)   bands (ev):

    -2.8809  -0.7370   2.2232   3.9361

     occupation numbers 
     1.0000   1.0000   1.0000   1.0000

          k =-0.2181-0.2179-0.8283 (   418 PWs)   bands (ev):

    -2.8801  -0.7340   2.2254   3.9275

     occupation numbers 
     1.0000   1.0000   1.0000   1.0000

          k = 0.3051-0.3051 0.3053 (   416 PWs)   bands (ev):

    -3.7575  -0.6053   4.8182   4.8255

     occupation numbers 
     1.0000   1.0000   1.0000   1.0000

          k = 0.3052 0.3053-0.3052 (   416 PWs)   bands (ev):

    -3.7565  -0.6023   4.8161   4.8221

     occupation numbers 
     1.0000   1.0000   1.0000   1.0000

          k =-0.3053-0.3052-0.3051 (   416 PWs)   bands (ev):

    -3.7571  -0.6041   4.8170   4.8245

     occupation numbers 
     1.0000   1.0000   1.0000   1.0000

          k =-0.3050 0.3049 0.9155 (   414 PWs)   bands (ev):

    -3.4094  -0.7800   3.5994   4.5591

     occupation numbers 
     1.0000   1.0000   1.0000   1.0000

          k =-0.3053-0.3051-0.9155 (   414 PWs)   bands (ev):

    -3.4082  -0.7772   3.6014   4.5508

     occupation numbers 
     1.0000   1.0000   1.0000   1.0000

          k = 0.3052 0.3054-0.9156 (   414 PWs)   bands (ev):

    -3.4087  -0.7788   3.6038   4.5513

     occupation numbers 
     1.0000   1.0000   1.0000   1.0000

          k = 0.9156 0.3054 0.3052 (   414 PWs)   bands (ev):

    -3.4103  -0.7838   3.6054   4.5590

     occupation numbers 
     1.0000   1.0000   1.0000   1.0000

          k =-0.9155 0.3050-0.3053 (   414 PWs)   bands (ev):

    -3.4082  -0.7772   3.6004   4.5520

     occupation numbers 
     1.0000   1.0000   1.0000   1.0000

          k = 0.9154-0.3049-0.3051 (   414 PWs)   bands (ev):

    -3.4090  -0.7789   3.5986   4.5578

     occupation numbers 
     1.0000   1.0000   1.0000   1.0000

          k =-0.9156-0.3055 0.3052 (   414 PWs)   bands (ev):

    -3.4091  -0.7799   3.6044   4.5528

     occupation numbers 
     1.0000   1.0000   1.0000   1.0000

          k =-0.3049 0.9155-0.3054 (   414 PWs)   bands (ev):

    -3.4089  -0.7789   3.6014   4.5543

     occupation numbers 
     1.0000   1.0000   1.0000   1.0000

          k =-0.3054-0.9157 0.3053 (   414 PWs)   bands (ev):

    -3.4103  -0.7838   3.6066   4.5574

     occupation numbers 
     1.0000   1.0000   1.0000   1.0000

          k = 0.3054 0.9155 0.3050 (   414 PWs)   bands (ev):

    -3.4092  -0.7800   3.6030   4.5545

     occupation numbers 
     1.0000   1.0000   1.0000   1.0000

          k = 0.3049-0.9154-0.3050 (   414 PWs)   bands (ev):

    -3.4084  -0.7773   3.5974   4.5558

     occupation numbers 
     1.0000   1.0000   1.0000   1.0000

     highest occupied level (ev):     5.9018

!    total energy              =     -93.45174305 Ry
     Harris-Foulkes estimate   =     -93.45174305 Ry
     estimated scf accuracy    <          3.2E-12 Ry

     total all-electron energy =     -1160.143473 Ry

     The total energy is the sum of the following terms:

     one-electron contribution =       5.56295635 Ry
     hartree contribution      =       1.11983310 Ry
     xc contribution           =     -12.28138957 Ry
     ewald contribution        =     -16.67123512 Ry
     one-center paw contrib.   =     -71.18190782 Ry
      -> PAW hartree energy AE =       5.94111197 Ry
      -> PAW hartree energy PS =      -5.91892966 Ry
      -> PAW xc energy AE      =     -81.74015958 Ry
      -> PAW xc energy PS      =      10.53606945 Ry
      -> total E_H with PAW    =       1.14201541 Ry
      -> total E_XC with PAW   =     -83.48547970 Ry

     convergence has been achieved in  13 iterations

     Forces acting on atoms (cartesian axes, Ry/au):

     atom    1 type  1   force =    -0.00022619    0.00008244    0.00032014
     atom    2 type  1   force =     0.00022619   -0.00008244   -0.00032014
     The non-local contrib.  to forces
     atom    1 type  1   force =     0.00013667   -0.00003732   -0.00019800
     atom    2 type  1   force =     0.00001379   -0.00002449   -0.00001234
     The ionic contribution  to forces
     atom    1 type  1   force =     0.00050499   -0.00015896   -0.00072275
     atom    2 type  1   force =    -0.00050499    0.00015896    0.00072275
     The local contribution  to forces
     atom    1 type  1   force =    -0.00081949    0.00028172    0.00116516
     atom    2 type  1   force =     0.00077384   -0.00026341   -0.00110162
     The core correction contribution to forces
     atom    1 type  1   force =     0.00001543   -0.00002820   -0.00001306
     atom    2 type  1   force =     0.00000733    0.00002132   -0.00001773
     The Hubbard contrib.    to forces
     atom    1 type  1   force =     0.00000000    0.00000000    0.00000000
     atom    2 type  1   force =     0.00000000    0.00000000    0.00000000
     The SCF correction term to forces
     atom    1 type  1   force =    -0.00000001    0.00000001    0.00000000
     atom    2 type  1   force =    -0.00000001   -0.00000001    0.00000001

     Total force =     0.000566     Total SCF correction =     0.000000


     Computing stress (Cartesian axis) and pressure

          total   stress  (Ry/bohr**3)                   (kbar)     P=   -1.64
  -0.00001118   0.00000120   0.00000034         -1.64      0.18      0.05
   0.00000120  -0.00001123  -0.00000085          0.18     -1.65     -0.13
   0.00000034  -0.00000085  -0.00001111          0.05     -0.13     -1.63

     kinetic stress (kbar)   2138.87      0.64      0.17
                                0.64   2138.85     -0.45
                                0.17     -0.45   2138.89

     local   stress (kbar)     31.28      0.89      0.29
                                0.89     31.20     -0.64
                                0.29     -0.64     31.37

     nonloc. stress (kbar)   1559.58     -0.20     -0.05
                               -0.20   1559.58      0.14
                               -0.05      0.14   1559.57

     hartree stress (kbar)    198.69      0.09      0.01
                                0.09    198.70     -0.06
                                0.01     -0.06    198.68

     exc-cor stress (kbar)   2884.09     -0.01     -0.00
                               -0.01   2884.10      0.01
                               -0.00      0.01   2884.09

     corecor stress (kbar)  -3856.18      0.01      0.02
                                0.01  -3856.17     -0.01
                                0.02     -0.01  -3856.19

     ewald   stress (kbar)  -2957.98     -1.25     -0.39
                               -1.25  -2957.91      0.90
                               -0.39      0.90  -2958.05

     hubbard stress (kbar)      0.00      0.00      0.00
                                0.00      0.00      0.00
                                0.00      0.00      0.00

     london  stress (kbar)      0.00      0.00      0.00
                                0.00      0.00      0.00
                                0.00      0.00      0.00

     DFT-D3  stress (kbar)      0.00      0.00      0.00
                                0.00      0.00      0.00
                                0.00      0.00      0.00

     XDM     stress (kbar)      0.00      0.00      0.00
                                0.00      0.00      0.00
                                0.00      0.00      0.00

     dft-nl  stress (kbar)      0.00      0.00      0.00
                                0.00      0.00      0.00
                                0.00      0.00      0.00

     TS-vdW  stress (kbar)      0.00      0.00      0.00
                                0.00      0.00      0.00
                                0.00      0.00      0.00

     3D-RISM stress (kbar)      0.00      0.00      0.00
                                0.00      0.00      0.00
                                0.00      0.00      0.00



     Writing output data file Si.save\

     init_run     :     38.89s CPU     23.70s WALL (       2 calls)
     electrons    :   3489.55s CPU   2209.98s WALL (       7 calls)
     update_pot   :     12.66s CPU      6.45s WALL (       5 calls)
     forces       :     29.12s CPU     20.19s WALL (       7 calls)
     stress       :    205.42s CPU    185.12s WALL (       7 calls)

     Called by init_run:
     wfcinit      :     31.77s CPU     18.53s WALL (       2 calls)
     wfcinit:atom :      0.97s CPU      0.49s WALL (    2048 calls)
     wfcinit:wfcr :     26.70s CPU     15.59s WALL (    2048 calls)
     potinit      :      2.69s CPU      1.39s WALL (       2 calls)
     hinit0       :      4.11s CPU      3.47s WALL (       2 calls)

     Called by electrons:
     c_bands      :   2864.27s CPU   1817.94s WALL (      85 calls)
     sum_band     :    494.05s CPU    321.97s WALL (      85 calls)
     v_of_rho     :      3.27s CPU      1.29s WALL (      89 calls)
     v_h          :      0.11s CPU      0.06s WALL (      89 calls)
     v_xc         :      3.70s CPU      1.46s WALL (     103 calls)
     newd         :      5.98s CPU      5.07s WALL (      89 calls)
     PAW_pot      :    138.80s CPU     72.52s WALL (      94 calls)
     mix_rho      :      0.20s CPU      0.22s WALL (      85 calls)

     Called by c_bands:
     init_us_2    :    189.81s CPU    123.03s WALL (  195584 calls)
     cegterg      :   2392.16s CPU   1519.28s WALL (   87040 calls)

     Called by sum_band:
     sum_band:bec :     28.30s CPU     27.02s WALL (   92160 calls)
     addusdens    :      8.02s CPU      7.89s WALL (      85 calls)

     Called by *egterg:
     h_psi        :   1963.00s CPU   1205.68s WALL (  277705 calls)
     s_psi        :     87.36s CPU     43.93s WALL (  277705 calls)
     g_psi        :     32.47s CPU     29.27s WALL (  188617 calls)
     cdiaghg      :     77.48s CPU     45.41s WALL (  267465 calls)
     cegterg:over :     54.30s CPU     32.09s WALL (  188617 calls)
     cegterg:upda :     62.55s CPU     50.99s WALL (  188617 calls)
     cegterg:last :     25.44s CPU     18.42s WALL (   95941 calls)

     Called by h_psi:
     h_psi:pot    :   1925.53s CPU   1166.13s WALL (  277705 calls)
     h_psi:calbec :    110.62s CPU     55.98s WALL (  277705 calls)
     vloc_psi     :   1724.94s CPU   1059.87s WALL (  277705 calls)
     add_vuspsi   :     83.30s CPU     44.04s WALL (  277705 calls)

     General routines
     calbec       :    154.53s CPU     78.49s WALL (  405705 calls)
     fft          :      0.75s CPU      0.35s WALL (    1162 calls)
     ffts         :      0.02s CPU      0.03s WALL (      85 calls)
     fftw         :   1376.08s CPU    628.57s WALL ( 2378274 calls)

     Parallel routines

     PAW routines
     PAW_pot      :    138.80s CPU     72.52s WALL (      94 calls)

     PWSCF        :      1h 3m CPU  41m 4.19s WALL


   This run was terminated on:  23:41:29  23Mar2023            

=------------------------------------------------------------------------------=
   JOB DONE.
=------------------------------------------------------------------------------=
